# vtk DataFile Version 4.2
Generated by LIGGGHTS
ASCII
DATASET POLYDATA
POINTS 10000 float
-0.0185176 0.00136712 -0.0366927 -0.0183459 0.00339697 -0.0367866 -0.0189573 0.00506208 -0.0364668 
-0.0190326 0.00696639 -0.0364341 -0.017878 0.00822641 -0.0370099 -0.0185722 0.0100893 -0.036667 
-0.0177417 0.0116645 -0.0370456 -0.0188105 0.0151426 -0.0365531 -0.0177364 0.0176679 -0.0370778 
-0.0185814 0.0192029 -0.0366622 -0.0202478 0.000895019 -0.0357791 -0.0197719 0.00260745 -0.0360326 
-0.0179878 0.00244212 -0.0353163 -0.0213159 0.00284379 -0.0351387 -0.0176771 0.0042653 -0.0353624 
-0.0206601 0.00593631 -0.0355357 -0.017793 0.0060516 -0.0355154 -0.0207665 0.00784064 -0.0354696 
-0.0191861 0.00863833 -0.0357961 -0.020159 0.0101501 -0.0358244 -0.0195282 0.011812 -0.0361709 
-0.0181364 0.0129353 -0.0358377 -0.0213268 0.0138251 -0.0351427 -0.0197497 0.0137018 -0.0360445 
-0.020126 0.0161373 -0.0358327 -0.0191543 0.0176444 -0.0359765 -0.0203653 0.019201 -0.0357041 
-0.0224913 0.00124544 -0.0344059 -0.020764 0.000896149 -0.0340714 -0.0187483 0.000899715 -0.0348026 
-0.0197851 0.00239637 -0.0342458 -0.0227923 0.00334797 -0.0342019 -0.0231144 0.00519579 -0.0339865 
-0.0216985 0.00458809 -0.0349105 -0.0199763 0.00408572 -0.0350311 -0.0187741 0.00519177 -0.03428 
-0.0221808 0.00704467 -0.0346054 -0.0194271 0.00693008 -0.0346848 -0.022977 0.00877889 -0.0340752 
-0.019363 0.00859118 -0.0340008 -0.0215613 0.00939485 -0.0349931 -0.0177868 0.00958498 -0.0351305 
-0.0225695 0.010531 -0.0340288 -0.0199519 0.0108823 -0.0342042 -0.0214485 0.0114846 -0.0350594 
-0.0182235 0.011325 -0.0350369 -0.0226418 0.0127766 -0.0343029 -0.0200992 0.0126049 -0.0346694 
-0.0184276 0.0128408 -0.0340641 -0.0228645 0.014567 -0.0341536 -0.019687 0.0146277 -0.0345051 
-0.0216123 0.0156189 -0.0349626 -0.0230821 0.0163476 -0.0340087 -0.0188152 0.0162356 -0.0342049 
-0.0218603 0.0174039 -0.0347937 -0.0200972 0.0174956 -0.034458 -0.0234064 0.0191966 -0.0337856 
-0.0219019 0.0192012 -0.0347711 -0.020271 0.0192009 -0.0339152 -0.0187454 0.0192009 -0.0348714 
-0.0249276 0.000900419 -0.0326771 -0.0229624 0.000892212 -0.0327144 -0.0192685 0.0008952 -0.0330836 
-0.0239463 0.00221881 -0.0334093 -0.021529 0.00236529 -0.0333809 -0.0242383 0.00397331 -0.0331933 
-0.018381 0.00347465 -0.0339131 -0.0214952 0.00414994 -0.0331817 -0.0197099 0.00425614 -0.0330046 
-0.0245122 0.00573321 -0.0329925 -0.0220309 0.00627741 -0.0329915 -0.0204805 0.0056821 -0.033771 
-0.0236723 0.00718984 -0.0336102 -0.0179846 0.00723204 -0.0336607 -0.0211041 0.00819468 -0.0337412 
-0.0241078 0.0099325 -0.033284 -0.0184811 0.0100926 -0.0335561 -0.0238287 0.0116971 -0.033495 
-0.0217629 0.0119195 -0.0329873 -0.0241277 0.0136276 -0.0332792 -0.0200795 0.0128516 -0.0328912 
-0.0212338 0.0143355 -0.0334315 -0.0179822 0.0145718 -0.03392 -0.0244528 0.0157066 -0.0330337 
-0.0204869 0.0159638 -0.0336074 -0.0241187 0.0176253 -0.0332833 -0.0207606 0.0177405 -0.0328045 
-0.01855 0.0179142 -0.0336316 -0.0248658 0.0191691 -0.0327316 -0.0218036 0.0192013 -0.0329703 
-0.0265406 0.000935027 -0.0313829 -0.0212061 0.000901504 -0.0323391 -0.0259651 0.00257686 -0.0318588 
-0.0241973 0.00232875 -0.031639 -0.0199824 0.00249349 -0.0324595 -0.0180762 0.00218328 -0.0327102 
-0.0227992 0.00316398 -0.0323953 -0.0263291 0.00431328 -0.0315595 -0.0245477 0.00407832 -0.0314269 
-0.0230712 0.00492865 -0.0322124 -0.0176108 0.00458218 -0.0327365 -0.0254635 0.00589287 -0.0314835 
-0.020822 0.005359 -0.0320403 -0.0189082 0.00603175 -0.0326964 -0.0260426 0.00756436 -0.0317948 
-0.0234161 0.00666509 -0.0319176 -0.0204056 0.00702119 -0.032577 -0.0237984 0.00840389 -0.032296 
-0.0220668 0.00791095 -0.0322454 -0.0188413 0.00781795 -0.0321995 -0.025426 0.00917601 -0.0322934 
-0.0224899 0.00964756 -0.0324639 -0.0203868 0.00895563 -0.0322869 -0.0188194 0.00971455 -0.0318346 
-0.0258652 0.010883 -0.0319421 -0.0240905 0.0111382 -0.0318165 -0.0223262 0.0111431 -0.0314646 
-0.0205086 0.0107293 -0.0325121 -0.0188938 0.011535 -0.0325596 -0.0265842 0.0133894 -0.031347 
-0.0252571 0.01252 -0.0324321 -0.0231571 0.0126514 -0.0321279 -0.0215179 0.0133644 -0.0319477 
-0.0183523 0.0134071 -0.032362 -0.0254245 0.0143846 -0.0322928 -0.0230259 0.0148258 -0.0323794 
-0.0196293 0.0146273 -0.0326857 -0.0261336 0.0159344 -0.0317232 -0.021341 0.0155256 -0.0320952 
-0.017976 0.0151613 -0.0322337 -0.023986 0.0168484 -0.0316737 -0.0223634 0.0169793 -0.0324886 
-0.0192543 0.0164445 -0.0323903 -0.0175504 0.0170165 -0.0323729 -0.0255484 0.0175711 -0.0321976 
-0.0263042 0.0190833 -0.0315806 -0.0232656 0.0186484 -0.0320748 -0.0191274 0.0192097 -0.0325364 
-0.028129 0.000898912 -0.0299733 -0.0248475 0.000895132 -0.0307775 -0.0226894 0.000950425 -0.0309455 
-0.0207313 0.000896699 -0.0306113 -0.0190619 0.000895955 -0.0313034 -0.0274298 0.00254333 -0.0301736 
-0.0215697 0.00232823 -0.0313131 -0.0196956 0.00236082 -0.0304817 -0.0233723 0.00323894 -0.0303319 
-0.0200394 0.00393385 -0.0312718 -0.0183439 0.00334069 -0.0313639 -0.0277297 0.00430788 -0.0303398 
-0.0218414 0.00410111 -0.031196 -0.0183266 0.00514321 -0.0311898 -0.0271465 0.00592291 -0.030862 
-0.0226218 0.0056761 -0.0306434 -0.0212977 0.006836 -0.0310211 -0.0194195 0.00656405 -0.0310579 
-0.0175262 0.00689787 -0.0308686 -0.0275146 0.00765515 -0.0305277 -0.0250901 0.00855926 -0.030637 
-0.0233927 0.00789981 -0.0306227 -0.0218586 0.00882114 -0.0307105 -0.0201489 0.00827277 -0.0306482 
-0.018365 0.0084587 -0.0305909 -0.0268159 0.00919158 -0.031155 -0.0236871 0.00964312 -0.0309166 
-0.0279642 0.0102547 -0.0301173 -0.0256518 0.0102465 -0.0302736 -0.020567 0.0100598 -0.0308522 
-0.0191225 0.0111223 -0.0307627 -0.0274018 0.0118804 -0.0306397 -0.0254603 0.0121441 -0.0306982 
-0.0237072 0.0120385 -0.0303182 -0.020651 0.0119638 -0.0312137 -0.0243667 0.0135092 -0.0311168 
-0.0197643 0.0135329 -0.0312571 -0.0257414 0.0145941 -0.0303114 -0.0214456 0.014544 -0.0306007 
-0.0182637 0.0144823 -0.0306017 -0.0273947 0.0152398 -0.0306351 -0.0241576 0.0152706 -0.0308359 
-0.0197946 0.0153183 -0.0310359 -0.022521 0.0161531 -0.0309005 -0.0182811 0.0162715 -0.0308663 
-0.026925 0.0174068 -0.0310589 -0.0231183 0.0177672 -0.0303994 -0.0213682 0.0175943 -0.031118 
-0.0188856 0.0178783 -0.0313684 -0.0276704 0.0189103 -0.030388 -0.0245854 0.0191887 -0.030964 
-0.0221146 0.0192014 -0.0308084 -0.0203695 0.0191789 -0.0312434 -0.0175818 0.0192002 -0.0316209 
-0.0262987 0.000902328 -0.0296015 -0.0219362 0.000896599 -0.0292867 -0.0193027 0.000894278 -0.0295259 
-0.0176411 0.000893103 -0.030208 -0.0292322 0.00231561 -0.0289045 -0.0250338 0.00251192 -0.0300218 
-0.0235564 0.00162168 -0.0295298 -0.0260667 0.00395358 -0.0297697 -0.0216967 0.00310299 -0.0296975 
-0.0199949 0.00381043 -0.0294667 -0.0182172 0.00393305 -0.0296738 -0.0289468 0.00408058 -0.029043 
-0.0243414 0.00462444 -0.0297316 -0.022633 0.00465051 -0.0291711 -0.0207837 0.00521194 -0.0302585 
-0.0278076 0.00579384 -0.0291989 -0.0257618 0.00572025 -0.0297218 -0.0241107 0.00639696 -0.0299388 
-0.0191768 0.00543378 -0.0294922 -0.0173983 0.00553403 -0.0297034 -0.0291301 0.00699124 -0.0289979 
-0.0259585 0.00748379 -0.0294932 -0.022453 0.00714071 -0.0292946 -0.020182 0.00691563 -0.0294772 
-0.0184048 0.00716714 -0.0293229 -0.0291597 0.00879985 -0.0289709 -0.0242933 0.00802966 -0.0290831 
-0.0269169 0.00899134 -0.0293844 -0.0242388 0.00985158 -0.0292174 -0.0227211 0.00890309 -0.0290718 
-0.0209301 0.00899422 -0.029187 -0.0193009 0.00962733 -0.0296006 -0.0227055 0.0106332 -0.0297786 
-0.0209877 0.0107854 -0.0292693 -0.0288317 0.0115977 -0.0292909 -0.0270759 0.011415 -0.0289384 
-0.0249334 0.0115048 -0.029116 -0.021948 0.0123156 -0.0300158 -0.0283622 0.0136297 -0.0297463 
-0.0266483 0.0131136 -0.0295745 -0.0248564 0.0132807 -0.0294038 -0.0201728 0.0127714 -0.0296806 
-0.0183875 0.0127079 -0.0303404 -0.0231253 0.0136616 -0.02982 -0.019745 0.0145059 -0.0294302 
-0.0244299 0.0150763 -0.02907 -0.0224902 0.0152686 -0.02934 -0.0284134 0.0164419 -0.0297032 
-0.025779 0.0163838 -0.0300208 -0.0209754 0.0161638 -0.0299831 -0.0181479 0.0172736 -0.0293875 
-0.0288501 0.0181379 -0.029269 -0.0269247 0.0175919 -0.0292796 -0.0247933 0.0178618 -0.0297579 
-0.0216836 0.017674 -0.0293224 -0.0199809 0.0176645 -0.0299646 -0.0259889 0.0192021 -0.0298144 
-0.0236216 0.0192076 -0.0294551 -0.0207723 0.0192065 -0.0294965 -0.0186435 0.0192067 -0.0301828 
-0.0302647 0.000894693 -0.0278086 -0.0282539 0.000986481 -0.0281883 -0.0265046 0.000895182 -0.0278153 
-0.0248568 0.000899108 -0.0285265 -0.0178789 0.000906013 -0.0284299 -0.026298 0.0024955 -0.0287425 
-0.0206654 0.00217021 -0.0285599 -0.0189234 0.00250835 -0.028842 -0.0302703 0.00383844 -0.0277309 
-0.0278476 0.00306701 -0.0280248 -0.0249781 0.00365733 -0.0283507 -0.0232695 0.00309447 -0.0285439 
-0.0281943 0.00493684 -0.0276575 -0.02651 0.00495194 -0.0282865 -0.0212525 0.00402937 -0.0282055 
-0.0179016 0.00472933 -0.0280999 -0.0298048 0.00547777 -0.0283067 -0.0239354 0.00538014 -0.0281565 
-0.0213762 0.00583843 -0.0286924 -0.0274592 0.00744101 -0.0285014 -0.0254874 0.00644677 -0.0280989 
-0.0234612 0.00707573 -0.0278093 -0.0302675 0.00770083 -0.0278043 -0.0204389 0.00779704 -0.0279438 
-0.0188378 0.00861067 -0.0279826 -0.026893 0.00893088 -0.0275977 -0.0175966 0.00919146 -0.0291445 
-0.0298962 0.0103531 -0.0282097 -0.0280903 0.0100779 -0.0282978 -0.0259003 0.0101443 -0.0284649 
-0.0222578 0.0105035 -0.0280279 -0.0186058 0.0111888 -0.0290463 -0.0234704 0.0124093 -0.0285808 
-0.0217986 0.0124408 -0.0279334 -0.0201212 0.0118309 -0.0280988 -0.0296365 0.012985 -0.0284755 
-0.0277944 0.0128946 -0.0282051 -0.025965 0.0124941 -0.0280339 -0.0187661 0.01291 -0.0285708 
-0.0279275 0.0146856 -0.0283548 -0.0259594 0.014345 -0.0284681 -0.0238187 0.0139781 -0.0277852 
-0.021395 0.013866 -0.028944 -0.0175278 0.0141315 -0.0290075 -0.0295132 0.01555 -0.0285937 
-0.0266945 0.0159797 -0.0285284 -0.0210445 0.0155122 -0.0283071 -0.0181383 0.0157343 -0.0284714 
-0.0281128 0.0169518 -0.028012 -0.025028 0.0166256 -0.0283671 -0.0233232 0.0167942 -0.0289049 
[...]
POINT_DATA 10000
FIELD FieldData 7
id 1 10000 int
6306 8494 8777 8251 6316 9963 5943 9130 5310 
5572 5229 4624 838 7077 6169 9754 6082 6179 
8742 9756 4989 3335 8627 9028 5361 6841 4053 
7783 1024 2338 9297 4810 5390 9812 6175 7389 
9719 4528 6816 9373 7838 5413 7602 9978 9298 
7852 7034 8583 1146 6512 8833 6155 4210 841 
7887 6919 8921 7446 4720 3185 8122 6968 9689 
9772 8723 1338 9916 9094 8803 9621 9335 7268 
4046 9164 7732 417 1485 9712 7522 9673 6256 
9750 3507 5620 9877 7128 2772 4118 9581 4186 
7781 9970 7282 2559 9875 904 6529 6460 6231 
9982 458 9817 6819 9426 5256 5819 9578 9263 
9977 7216 9940 8252 5597 7146 7740 9728 9853 
9703 6517 5090 7815 9658 8947 9002 6344 8536 
4357 8829 9709 4866 9701 3306 3909 1919 9663 
9971 9726 878 2547 6826 2511 5872 3262 647 
7309 4926 5067 4283 1578 9705 7063 1279 8005 
5695 9195 4014 927 7493 9980 62 8087 9110 
4769 9554 5097 9555 8781 8773 8351 9290 9584 
7151 9782 9685 7784 9788 6587 4534 9200 8125 
830 9947 3171 9810 4420 1483 1292 9966 2308 
3208 3274 9997 7169 4767 3741 6731 7737 8490 
9213 1829 1158 9371 2419 7423 9178 6035 2156 
7064 9157 6430 2577 261 6472 6382 9827 7615 
2348 6852 1984 5647 6992 9629 9608 823 7417 
8128 9420 2237 3016 377 7185 9546 8016 2724 
3727 7883 320 5348 1615 6652 9688 1287 2877 
9859 5351 9538 206 4783 1572 5935 3675 1819 
7024 7669 146 8397 1147 7661 2910 203 6130 
9954 175 9460 7743 8710 8342 7814 9895 818 
2527 8045 5763 1187 9662 2023 971 7508 6418 
4623 5401 2828 5861 3204 1875 574 4786 8783 
3149 5450 1152 7822 6985 3011 3908 4088 5953 
5018 2258 4190 6060 6683 7709 639 7904 8064 
6834 9803 1334 4236 2387 7186 7455 2112 3431 
4023 2655 5333 9543 9065 2797 4271 9985 4026 
8967 9225 5741 5129 5309 5614 5617 4221 2987 
2911 9816 5010 825 2105 5468 8021 9561 3197 
2347 7996 3750 9522 9886 1388 6296 6719 1179 
8765 4887 3954 345 9851 3305 4967 9656 2488 
9698 24 4387 2790 5398 9171 5358 1258 287 
9671 9256 1820 2289 2756 1241 4380 3123 4399 
3053 3864 4143 9248 1573 3100 1764 4805 9345 
2942 9444 4207 5749 1654 224 6174 6908 2008 
6319 6395 5243 1811 8110 889 2108 2878 19 
9659 1550 5662 801 477 8043 5230 1816 4622 
3515 4404 8718 9005 9415 1754 83 3644 7837 
297 2603 7415 6078 4604 3866 5509 457 2449 
918 8180 7172 7512 1026 632 508 9520 1690 
5901 2825 1118 2433 5046 7335 6446 2356 1063 
9405 4985 7554 2192 1008 3077 4703 4518 2304 
7746 7236 3666 5162 917 4493 898 2207 5474 
1758 406 7930 3136 7156 8486 8277 7958 3 
4527 9529 9600 1660 1763 4730 1270 5764 1126 
190 604 5272 2737 439 3325 9795 774 5610 
3522 3797 9163 6280 77 9882 6793 1240 3465 
6264 8808 2135 1541 6660 3096 2226 9179 7876 
1549 2768 9894 1411 832 4453 9645 303 2944 
3196 3117 8550 350 129 3635 1905 5883 222 
1003 4599 5631 8353 4154 595 1004 1095 6749 
2141 2791 2478 8932 3755 2055 6686 1329 2370 
1712 385 2951 6655 5911 1473 9411 3241 1124 
4102 2358 6305 1878 3922 6071 4700 920 1797 
4594 4929 1882 3511 5139 4935 3820 4052 4474 
4247 5800 1866 2934 7659 2892 9530 3900 3584 
2171 1484 677 430 442 1570 3326 8070 7125 
6414 8673 582 5328 1037 2004 8420 3782 8178 
9502 1777 1709 9692 3432 7638 9646 6784 7762 
9232 3810 9285 2706 2994 6578 1496 4265 7462 
3165 4535 680 1467 4940 9265 1810 3101 7412 
8410 6943 6504 4507 2016 1089 868 2882 2256 
5247 9732 107 3848 2492 9579 1920 641 1582 
7561 8539 6520 6827 9729 1200 2757 5988 9702 
5122 7445 1011 2704 8740 634 3467 2585 743 
9120 492 9639 758 6681 3963 9085 3595 9753 
4994 6440 3836 4928 1092 2176 3594 3167 6548 
9548 4538 921 1093 7339 4607 6814 4916 4123 
4639 3743 3610 5776 1245 5127 5636 8433 6502 
425 4854 3528 210 8987 9968 9198 198 6204 
8667 4181 8810 9132 2834 128 6010 4478 2429 
5533 9556 1769 6470 1234 1961 3138 3377 2142 
4253 7109 9613 6068 3942 548 1384 8694 3360 
7801 3746 8764 205 8004 6577 2680 2555 1039 
8090 9620 6459 3951 6437 6998 4539 4110 3561 
5241 202 6604 9243 9933 4439 2054 8001 3455 
8824 260 2560 3064 7579 5532 9056 3086 2022 
1527 2711 8074 6088 1782 1611 426 8622 9116 
2365 4356 2701 8797 9144 7320 9567 5963 435 
875 6064 4615 8779 4200 2822 2195 1494 9884 
9852 7626 3473 2490 8750 7853 6289 2287 57 
4192 7012 9638 9582 3794 9339 6579 4815 3180 
5640 4148 81 1500 5412 9511 7331 4459 5439 
2643 7533 9312 1283 5212 481 1587 1521 2513 
840 1278 6117 9834 4966 7111 8270 2228 1786 
3873 9572 851 3529 3771 4117 1801 5058 9316 
3887 4917 3353 4875 5200 5500 5196 2502 7460 
3407 8026 493 7816 6911 8364 444 9348 984 
2886 318 6163 8946 7133 2084 2557 709 3160 
6501 4232 2718 3351 578 4382 4124 9832 6142 
3052 4924 7464 9545 9693 716 3025 2341 1850 
3376 3176 2545 3745 5055 9627 20 4505 4610 
2261 2024 1053 656 9103 8685 6058 7142 525 
2499 5072 4968 5615 9229 7310 9069 1812 4411 
2564 6022 9521 104 9931 2190 1598 6428 5428 
7495 7440 1917 93 2646 8693 6500 5025 9765 
2235 2787 3688 1033 2480 9825 9439 3049 2043 
4314 813 1263 3564 9855 1138 1895 1280 1135 
3992 6259 9118 2263 1499 1991 8709 7776 4240 
6505 9376 8518 9774 9911 4704 958 7017 9783 
9948 9604 2841 1086 6061 111 5144 9871 4690 
2681 862 7562 9150 5696 7178 3384 1165 2936 
9906 4298 6977 3804 1556 4366 788 5128 3819 
6086 8158 9575 167 7943 3722 3818 8640 4197 
627 539 689 396 530 5519 1567 4583 4513 
9158 2862 166 5053 372 9654 8483 5613 3331 
1581 276 1610 6790 1235 8106 9564 1465 7090 
6825 5420 4901 2253 2364 2821 4336 7439 4477 
1694 8023 6385 3917 3768 3028 4401 9380 6001 
8203 7600 1783 611 7527 9024 5034 4945 4297 
2525 3330 2979 607 5551 7835 6031 6955 6279 
4723 3966 3480 5169 7448 6248 7811 3735 4572 
5283 3833 7591 8756 750 3332 2454 8525 5284 
6265 5730 2166 8809 8385 7421 4775 2376 600 
5653 5792 3637 985 2268 2352 4954 5434 6411 
9458 5021 6975 537 4834 4719 103 8976 5814 
3943 4567 3346 3276 1798 5000 9550 9844 6450 
8758 7942 8595 8099 6116 4209 4223 389 2324 
2744 6545 8612 7021 7485 3588 2820 7160 2962 
5878 9058 7233 4115 992 5754 2252 5748 9216 
9544 7379 4080 1683 1510 1042 7911 7083 6394 
7084 8195 9401 310 738 2406 8176 5791 1368 
4042 2591 6334 5679 6760 9857 6484 2520 4731 
559 6808 7648 6523 9368 9479 4846 3295 3449 
7425 2343 7979 9500 6554 2213 5070 3998 538 
1332 1310 4427 4239 7051 6043 2269 5086 2005 
299 2115 5649 5337 7817 6449 9220 1713 4556 
996 5271 9410 6386 7897 2983 67 4413 8917 
5538 4412 2314 5863 5535 7085 9088 5096 501 
3416 1696 4976 5680 7498 8828 1441 6525 5675 
7855 5774 4165 6048 2299 3650 3962 2815 6191 
7476 8761 5903 1897 2773 8014 2437 5399 9846 
3339 5823 7372 4261 7584 2722 186 3490 6492 
3796 7873 5427 2652 8582 2482 1717 4104 8741 
6092 6224 9903 9914 2567 3540 3081 1746 3215 
5194 6695 8441 4054 2396 2578 4715 4970 6917 
7338 8566 7477 615 3154 9539 4921 3457 7323 
8348 5440 8141 1870 7473 6631 9281 1216 4259 
8591 8443 9156 780 1229 127 8341 7894 9842 
2363 1367 2977 9267 2833 5670 2912 4059 881 
3897 6665 4737 2313 173 1698 5765 7888 3628 
9433 5868 5408 7119 3542 337 1735 8909 7909 
7010 7235 799 2743 2881 6699 3118 8488 7484 
8632 6495 33 2438 872 7932 8836 1853 398 
746 2597 9193 8259 8006 6077 1799 383 6700 
1504 6513 9282 8352 8637 666 4592 876 3406 
8815 9326 7720 296 2638 3034 368 4890 8854 
6234 6939 5346 5255 7308 8870 6283 3080 3336 
3730 5066 8199 5193 433 1210 1740 3931 6406 
3464 9873 4043 90 6606 7613 7052 30 676 
3337 58 908 2647 8017 9234 1449 4310 9172 
6479 7388 4061 7013 6762 5423 3415 2183 5076 
9020 7037 8952 5471 183 3940 2515 1641 3621 
5467 7129 9619 9553 9921 9244 7316 9559 8812 
9972 9998 865 1313 3340 7487 6552 1585 3938 
4339 7459 7293 9943 6958 4472 2194 2483 7957 
7205 8257 5132 4807 4754 1226 2362 12 8839 
6953 3896 5836 4107 571 1219 4329 5578 6137 
7386 9981 1636 118 89 8287 8292 6162 727 
633 40 1864 7920 6748 5638 2000 8053 6754 
7291 6403 3021 2091 4168 7929 2346 1880 4582 
8931 8400 733 4487 1176 3607 844 5368 5950 
6013 9967 2215 7433 6466 5032 6853 9913 4668 
4424 3088 5376 9838 8913 1052 6085 2685 1002 
1350 5344 9182 7058 8579 3762 7590 1923 4495 
3083 6884 5028 7770 2474 4830 3324 8218 7642 
8877 132 7149 9406 7983 6608 4320 1133 7844 
6922 7405 6409 5301 1464 5712 629 8771 7702 
464 1867 8749 4006 2227 8982 7189 4078 3186 
1899 3139 3221 6864 5796 3413 7573 2775 1684 
4430 4848 1962 9430 9675 9610 9957 3001 2021 
376 3520 7224 8681 9757 4789 2840 6899 6023 
1417 2599 6557 1232 9097 6383 5274 9915 9098 
999 521 2276 418 138 707 5027 7432 6146 
5922 9299 1965 9390 4915 4683 9364 7707 7180 
3182 1054 3798 6435 6184 5106 8434 6568 909 
8500 9565 8965 4047 3739 1320 5173 8493 9710 
6843 6021 7576 6866 3719 3382 285 308 6913 
7592 5811 9696 6906 6974 4358 8094 5098 6220 
8372 9945 4249 5596 6198 8444 98 3778 7349 
4139 6905 5249 3731 3039 1488 315 4266 3567 
5020 7628 9944 9084 5782 65 1438 4198 1936 
5159 8424 7005 2569 6874 6474 3604 3414 1770 
612 2128 7399 9804 6172 2316 3736 5923 8774 
9652 3882 218 7587 4521 505 8401 8555 8031 
3398 6034 6367 9259 6114 1331 2660 6456 8728 
936 8873 9480 6062 6506 8837 31 8590 9472 
5111 1047 7617 6195 8421 5928 5205 1956 3685 
4906 1355 8127 5406 7223 1222 488 3104 8887 
5969 1159 5140 770 1048 852 7451 1352 9863 
879 1653 84 4417 5545 9590 6201 2894 6030 
5817 8048 911 2759 4323 4936 1854 1891 8574 
8373 5850 4408 470 5213 5303 7361 6602 9952 
9233 1397 7603 4939 7742 2038 5965 5870 7193 
2441 480 2175 3459 3834 3646 2185 3006 4141 
599 4867 2080 622 9147 3991 158 2297 3008 
5314 620 6618 1431 8941 1503 8386 8377 4378 
2369 4044 400 2165 8184 8577 8215 515 4308 
2073 4598 6066 3230 8196 6930 7951 8594 7727 
4450 7391 9074 3867 1672 4103 5384 4617 9551 
1700 535 9909 1692 5734 2046 8496 7260 6363 
165 6666 2027 9340 7171 9805 9586 3463 3513 
2863 3056 6765 9452 4475 9731 6318 9402 2694 
2848 3872 2391 7318 3200 1620 1987 3987 3831 
5862 8256 8467 4237 8615 6067 6381 6123 9687 
8452 6802 3466 3229 2468 2375 7074 6730 8739 
7500 6369 8236 4542 3085 5604 956 4362 4492 
6016 8268 9724 3255 7946 3926 1693 1343 6543 
3927 6125 7279 8428 2241 2512 2898 274 1638 
4570 2410 5464 1719 412 4392 686 1745 6856 
5103 7239 1978 5404 3184 4177 503 6238 8383 
7371 4951 2904 7653 4862 6603 7377 7568 6112 
6134 7961 8079 8207 8711 9937 9272 3109 56 
9262 5512 9759 6596 7201 8133 8047 9274 2264 
7170 6392 5265 1428 837 7701 4586 9800 8559 
5204 2400 9370 9261 5983 5462 2716 1726 3964 
899 8445 6912 346 792 7183 413 8036 5678 
446 1547 7221 660 8867 8201 1699 923 5890 
3183 9780 3381 831 1742 4100 5635 8463 3985 
6697 5769 1174 563 1826 6496 221 2497 9898 
3233 6007 2278 113 8772 9747 5209 6717 2518 
755 3504 2126 1608 4877 277 7877 2407 541 
8034 9767 8729 4394 1789 3769 5116 6721 4952 
8623 4055 1062 9309 9626 313 3057 500 2727 
9136 9246 5119 6537 2879 177 8390 7120 1238 
3317 7808 9038 7967 6850 4018 4757 2431 2572 
9264 7691 1955 9939 975 4627 3886 9633 6549 
1410 4451 6688 6574 4032 8562 9831 9697 2037 
4105 3425 9965 6213 8794 3712 6 1873 4957 
2058 5429 6674 8217 1254 294 9237 9419 6235 
2949 5397 7636 2726 694 6443 2665 8240 9497 
2926 795 9941 2672 4498 4324 69 4753 9151 
5896 2920 7297 9758 9580 5030 4442 8504 1443 
201 724 2708 567 1289 8857 7974 2146 740 
4641 1493 2470 9938 7632 2045 4858 1832 2325 
9606 3808 1381 3812 749 4942 5102 6372 9601 
2412 2057 2673 9070 1167 4071 5276 8945 6432 
8458 8198 2589 7116 4159 5409 8002 8669 1524 
1295 5666 9618 6865 3302 1056 7502 8865 3793 
9830 9912 1319 5316 9092 1356 713 7734 9787 
7283 8482 4612 5842 7541 9934 887 3112 2651 
7298 6771 7551 4398 5948 3996 38 2440 5052 
6809 5457 7730 4923 4902 76 9524 1308 2456 
3883 3591 2875 8687 9714 4710 802 2174 196 
8172 9908 9815 5367 1351 4536 786 5281 3707 
3827 5157 8800 2466 1877 2498 4676 4428 8042 
2522 6098 9746 8713 4003 912 2247 4861 5976 
6828 8571 1634 3341 1560 6287 7413 7380 1099 
2909 4531 711 4469 9052 9537 5558 5990 1085 
3995 3484 4662 7483 8972 9607 5143 2552 7132 
5226 6337 4670 4172 4331 3925 636 2738 3558 
9856 7336 1148 9462 3321 5186 4758 1208 1482 
8193 1385 325 9454 5123 8876 4255 1851 497 
1184 4351 7438 9532 6570 1925 4098 7359 9741 
5787 2082 6373 8649 1163 3124 1458 1934 6739 
5065 8933 72 240 2984 4254 7612 6271 4291 
3581 3066 8532 6872 8625 3851 3140 3852 2602 
3619 9142 7164 6969 9552 1901 2952 3115 1495 
2583 1637 8498 5385 9245 8009 5141 3718 2042 
2094 9557 5326 1298 1149 1802 2300 7865 6465 
8818 7352 3682 3788 2964 7505 6193 962 9477 
1937 4547 1451 4837 8786 3534 2621 3367 1622 
8541 8692 649 1860 1858 7892 9036 3687 1835 
393 3662 3250 8000 9896 2155 4893 4608 3668 
586 9124 5085 9973 6044 1747 2990 2026 1534 
6099 8701 5786 2196 4611 1714 5069 8324 7535 
5646 1302 8393 4257 2918 5155 6131 2846 8934 
3884 231 8744 9328 5179 1105 3854 4589 9628 
6903 7428 3907 580 4728 782 5189 7057 9946 
2061 1670 1592 2629 1268 9591 5906 9690 2464 
1439 3105 8491 258 4335 6946 6210 2214 9494 
247 2573 2860 3046 8435 4693 7809 9661 6626 
1780 4961 6672 4195 3121 3700 2731 7841 8769 
7520 2653 4796 9723 225 7939 5405 682 3445 
2540 4145 8872 1724 2746 3477 2830 1108 6823 
2442 2965 6101 1950 1027 2086 4732 6723 378 
2506 2784 2925 9148 9881 6962 9528 9212 6310 
3678 572 2029 1172 2461 8915 9826 7793 1862 
785 9922 9955 9733 9362 8608 805 4743 4544 
462 1815 4523 1941 4001 8970 4135 1887 9791 
2039 5393 1995 1599 903 4090 4465 5417 9991 
3213 6004 2025 436 1643 48 5857 2774 7795 
288 8461 3202 764 5756 9161 1498 1730 2350 
6585 5327 9173 6536 6740 2143 4211 340 2172 
735 6251 5852 5477 5215 1418 8942 7598 5476 
3805 2283 2455 9920 7284 8326 1893 1007 8448 
7685 9181 6475 2644 1281 760 6214 1907 8399 
6776 7030 5629 2049 2398 9694 7903 1818 2780 
972 7655 528 504 1506 471 3089 4768 4759 
3773 1911 7490 9389 7672 8671 3624 3310 1203 
5012 3338 7898 863 3695 854 8655 9644 1246 
1861 473 2796 2741 4999 1612 1088 3521 8614 
598 1198 3026 2198 1543 8214 8881 1387 4736 
2184 355 4361 565 4280 3935 353 4365 7777 
1574 9789 5913 957 9549 3368 429 7736 2973 
112 324 3527 9332 1665 6019 8211 6680 4294 
4012 6299 478 9790 7470 4914 8189 8011 6046 
8278 1291 3785 9854 5579 8101 4984 5371 4333 
5715 9888 9762 5517 814 938 8814 6746 9814 
569 2050 547 319 1564 1260 4981 8359 5702 
757 1041 2880 3879 6003 6648 8992 6601 2395 
317 1711 7847 2408 9534 9964 4633 1743 3970 
9862 9798 7667 7016 2771 3209 966 8508 8853 
9927 1628 702 874 2234 4464 8964 8665 7954 
3282 1872 7711 6786 5496 3601 9739 3541 6171 
9918 9574 8243 8456 7798 5505 4707 4681 391 
9828 1025 49 2988 9146 6457 9343 9614 8457 
120 4415 9527 7534 8003 1155 7761 1807 2633 
3733 1265 4448 8631 9725 9255 7360 545 1733 
2809 3427 1403 9199 7769 9748 7690 8354 7915 
9785 6436 5035 5937 9012 9595 6718 8517 5942 
7821 6564 3814 4809 3657 9134 1584 2179 2586 
6947 5590 5288 8059 5199 7747 6559 6165 4041 
2553 4727 379 2148 6684 9995 4943 9891 5114 
2129 902 7492 7934 9202 53 6635 4496 9082 
8266 8823 2950 6938 3813 1822 9428 3701 7226 
7788 1445 4429 4178 9465 5886 5552 4983 2041 
8912 5659 9742 8672 1160 7792 4360 39 8954 
3923 9100 7449 8745 9616 526 4268 7088 9716 
6803 2956 2792 7566 8296 6417 6879 3220 2427 
9743 6727 5131 8802 3058 3198 3634 8630 8846 
3636 6147 4666 6831 2056 2627 2649 7569 9623 
7937 8731 6328 8103 8089 6619 8476 2584 9570 
5120 7250 2246 9474 8817 6493 9493 395 6426 
1036 5894 6909 9766 6247 8212 1837 7969 8788 
9562 6346 6613 9917 9806 4782 1080 7346 5954 
8288 651 45 9269 7586 5955 7854 6429 8592 
3780 4950 8208 9976 7575 2885 4142 8344 6766 
8864 8166 472 551 4390 4580 5576 3753 5300 
9700 5486 8355 7194 9257 8143 9378 9602 8337 
6954 5437 6979 5663 1618 5315 6128 8714 9568 
5493 7416 8403 4672 7984 7950 9127 9266 9174 
5074 5130 3264 9667 7531 5267 5690 7102 1129 
9459 5036 7029 3832 5644 7840 1297 182 4614 
9707 5673 7173 6959 6049 7884 7093 5299 8958 
5291 7895 7733 7393 8237 7633 6795 9576 9515 
5812 8213 7935 8052 6345 6728 7948 5081 6924 
7910 9571 5713 9632 6607 1264 3166 964 6637 
7914 9583 5737 6281 7529 8675 4191 6743 6516 
2486 8510 5839 619 5002 8413 7124 9649 5848 
6572 6028 8796 6580 9585 2650 6936 9975 3648 
9221 3888 2493 9764 9987 9847 9372 9809 6480 
6600 9984 9107 8165 8261 7912 6297 9664 9277 
6885 8379 8847 4278 115 9367 5188 7834 9763 
7963 7195 7978 2063 5710 3000 6282 6756 5374 
5565 6741 8362 5619 5736 6961 4196 7593 8233 
719 3737 6821 5444 3090 1845 9189 7055 6667 
7373 4997 5285 7070 6076 9015 7317 4438 8782 
9775 8523 7629 8066 7955 5591 7891 9730 8473 
663 6376 3068 2620 5618 9041 9061 6339 6867 
2571 6662 9271 882 7956 7772 7397 9889 9566 
9874 2986 4543 9057 7563 9839 5669 8380 9919 
7874 6158 8075 9899 6973 5718 7351 7315 8306 
1349 8339 9951 9907 7469 8707 6742 9647 8879 
6799 8155 7514 6488 8734 9518 5181 8678 9986 
6990 6804 8054 9219 9932 9498 6661 7641 653 
9490 7570 5044 5134 6542 6222 6482 7555 6463 
8720 8902 6065 6200 8007 7461 6321 8949 5790 
9776 5275 7651 7683 7972 6615 7243 9637 7673 
8072 5008 9738 7684 6620 5007 8647 9755 6624 
6558 5924 6397 5183 7383 9835 8762 9027 9506 
7390 5664 7292 5813 6006 7269 7136 9055 7259 
4963 9445 7257 9159 9768 5383 9677 9598 6659 
8481 6859 1804 5250 9869 7117 9517 9447 5964 
6789 9593 8636 6925 8558 7378 5248 5451 3651 
7444 8484 7370 9679 5372 7276 3524 7625 5936 
7748 9393 5818 8531 9770 5916 8634 6944 4946 
7621 8624 7639 7043 6515 8748 7976 8269 9407 
5900 8717 6638 5360 8432 6696 8776 5298 8197 
5634 6842 5587 7771 1836 2180 8602 9188 6744 
5302 7134 6388 8957 7797 5626 6511 6187 9837 
9599 9508 8046 512 5475 9925 9722 7595 6275 
9029 8780 1775 6986 5126 5884 8139 6051 7947 
9089 8289 6093 8547 893 2654 1444 6610 9990 
6477 8408 7215 5740 6880 9133 9540 8325 5520 
6353 5864 5548 6133 5014 9843 7048 6075 7869 
5379 9793 9660 7463 9505 6779 9516 9813 6424 
1097 6794 7022 7049 6348 5019 9786 7968 6663 
7982 5294 9653 5293 9205 6897 9399 7945 6704 
9807 8768 4371 8597 7993 3586 6649 6811 9475 
8286 5237 8010 2361 8311 5525 6408 5210 7340 
8466 3495 9288 9969 7150 5472 8860 8698 9631 
7086 9824 5716 5939 8283 8118 8475 2690 6738 
5258 7713 7472 5743 9385 1285 7712 9542 6645 
7266 6018 7755 6708 6987 5049 8501 544 1405 
5783 8593 6291 6824 5167 5499 9095 9935 9879 
8389 6121 6761 9051 6063 1348 7367 7827 8535 
6562 6118 9279 9180 1224 618 7901 7536 9154 
9617 7108 6703 7836 8999 9104 6956 7089 9409 
9740 5588 9039 6181 6026 5225 5329 9956 6710 
5668 1357 9848 5527 6839 9993 6846 7539 9781 
7312 7272 7152 7294 9636 6589 8084 8620 5425 
6941 7846 6389 9356 6467 8511 6584 212 5270 
6312 7011 9988 7075 5391 9165 6675 6764 7614 
5449 9523 6387 9897 7998 7217 6668 7241 7494 
5833 7219 6270 9228 4992 9634 9573 6402 6878 
7763 9408 125 8140 7003 8465 5137 5561 7069 
6057 5688 5045 8081 7025 5259 6777 8704 5577 
9427 6780 5785 9563 8022 6490 5574 5699 5277 
7302 6617 6211 9541 8785 5600 2496 9464 9923 
7965 9236 7952 9437 5388 7038 6737 4958 5603 
3665 8997 8545 9792 6390 6964 9386 8699 9641 
397 9820 9822 7176 6083 6882 9643 9674 9752 
5149 5378 5268 9779 9904 8430 7345 2745 5544 
8168 9603 6196 9929 7686 10 6110 6893 9720 
9819 6364 6423 3562 8062 8330 7191 8827 5573 
9657 7137 9025 6352 4938 7829 6937 8254 7231 
8295 6148 9718 9138 6106 7281 8848 5091 9836 
199 5729 5187 6451 5831 9388 8922 8358 7729 
7256 1896 5982 9078 9699 3934 8160 8273 7306 
9525 9167 6070 1084 9547 7631 9901 5625 3626 
8730 6207 9588 9878 9625 4470 3734 8032 6024 
9799 9514 2284 8743 7265 7218 7356 7681 6217 
8226 1066 9207 6433 7924 9577 9708 5320 1507 
9880 7682 5418 9749 8065 6017 9383 8419 9887 
5810 61 2368 7723 833 7420 9596 5013 6445 
4971 1883 7175 7220 5201 6347 6054 4533 415 
8830 4352 8650 9059 6182 8626 6801 7789 8058 
255 5364 6055 8784 5999 7578 5217 9093 7148 
944 8747 6616 9311 9666 4285 6847 6768 8977 
523 2817 8375 5705 9890 5521 8161 5262 3343 
8985 7872 8083 8506 9829 5566 6711 9734 9597 
7766 9217 5221 5524 5797 6541 3924 8560 2532 
9850 6301 9892 4941 6129 8080 8737 6371 9066 
8073 6862 1171 965 7114 1132 5888 9238 8708 
9160 7144 812 4447 8643 6807 6483 7870 1834 
9681 8227 8792 9678 2935 6556 2676 1378 6522 
8875 7917 8069 5616 9672 9870 8301 5755 8063 
3630 181 3418 8584 8986 5623 7341 9612 9989 
9121 7721 5234 8192 3949 8726 9960 6849 5854 
8450 7627 9398 7032 8919 8697 7530 6509 1868 
3291 5742 7286 858 5940 9727 6151 4185 3316 