# vtk DataFile Version 4.2
Generated by LIGGGHTS
ASCII
DATASET POLYDATA
POINTS 10000 float
-0.0163838 0.000896547 -0.0377018 -0.0171842 0.00246458 -0.0373341 -0.0161881 0.00391314 -0.0377779 
-0.0172769 0.00533727 -0.0372964 -0.0161769 0.00957645 -0.0377895 -0.0171184 0.0144668 -0.0373714 
-0.0161354 0.0159456 -0.0378091 -0.016674 0.0176443 -0.0375649 -0.0196947 0.000899456 -0.0360733 
-0.018015 0.000898985 -0.0369417 -0.0191824 0.00377126 -0.0363496 -0.0171188 0.00389025 -0.0362381 
-0.0181663 0.006836 -0.036869 -0.0164316 0.00728874 -0.0369202 -0.019376 0.0080138 -0.0362521 
-0.0176941 0.00855093 -0.0371012 -0.0166083 0.0095219 -0.0360524 -0.0191217 0.0112315 -0.0363846 
-0.0175542 0.0105596 -0.0371693 -0.0161333 0.0112342 -0.0363045 -0.0178481 0.0123259 -0.0370276 
-0.0161715 0.0129492 -0.036874 -0.0188387 0.0137385 -0.0365313 -0.016504 0.0155738 -0.0360993 
-0.0195812 0.0164763 -0.0361378 -0.0179163 0.0162288 -0.0369936 -0.0185715 0.0178679 -0.0366679 
-0.0196441 0.0191946 -0.0361055 -0.0174942 0.0192019 -0.0371944 -0.0212457 0.00111877 -0.0351886 
-0.0177182 0.000897315 -0.0348373 -0.0162314 0.000897299 -0.0359204 -0.0184887 0.00220614 -0.0358005 
-0.016787 0.00240212 -0.0351154 -0.0207277 0.0033716 -0.0355002 -0.0214825 0.0049475 -0.0350397 
-0.0196996 0.00468468 -0.0348451 -0.016389 0.00486133 -0.0348899 -0.020359 0.00618383 -0.0357065 
-0.0184272 0.00534325 -0.0359157 -0.0170797 0.00644519 -0.0354756 -0.0209354 0.00792274 -0.0353689 
-0.0178557 0.00805582 -0.0352853 -0.0160464 0.00800425 -0.0352781 -0.0217549 0.00944329 -0.0348703 
-0.0202156 0.00953141 -0.0357886 -0.0184283 0.00964992 -0.0358897 -0.0210283 0.0110571 -0.0353178 
-0.017356 0.0108256 -0.0350545 -0.0182593 0.0123631 -0.0352848 -0.0215589 0.0135372 -0.0349906 
-0.0202345 0.0126009 -0.0357779 -0.0160608 0.0125777 -0.0351253 -0.0202971 0.0148517 -0.0357431 
-0.0172417 0.0138026 -0.0357088 -0.0185116 0.0151733 -0.0355109 -0.0212027 0.017962 -0.0352116 
-0.0191106 0.0179031 -0.0349609 -0.0170449 0.0174544 -0.035815 -0.0178468 0.0191715 -0.0354303 
-0.0228025 0.000942856 -0.0342026 -0.0190157 0.000887472 -0.0336022 -0.0160045 0.00106615 -0.0341531 
-0.0223585 0.00266218 -0.034486 -0.0199609 0.00216626 -0.0344243 -0.0182191 0.00243472 -0.0340372 
-0.0235592 0.00381296 -0.033681 -0.0210875 0.00372343 -0.033782 -0.0167469 0.00336756 -0.0336012 
-0.0180058 0.0040987 -0.0346868 -0.0232031 0.00555694 -0.0339241 -0.0205256 0.00598726 -0.0339281 
-0.0184669 0.00582182 -0.0341828 -0.0220054 0.00663796 -0.0347166 -0.0194346 0.0072747 -0.034619 
-0.0229615 0.00836928 -0.0340914 -0.0165939 0.00872399 -0.0337284 -0.0200465 0.00904646 -0.0340642 
-0.0181768 0.00947281 -0.0341214 -0.0231313 0.0101767 -0.0339744 -0.019374 0.0106793 -0.0346969 
-0.0224243 0.0117589 -0.0344452 -0.0207252 0.0122669 -0.0340238 -0.018957 0.0120855 -0.0336559 
-0.0232299 0.0132689 -0.0339098 -0.0176838 0.0134738 -0.0339971 -0.0207976 0.0148499 -0.0340205 
-0.0192891 0.0137378 -0.0347577 -0.0226167 0.0149009 -0.0343231 -0.0190651 0.0152628 -0.0338084 
-0.0170183 0.0150732 -0.0344607 -0.0222534 0.0166399 -0.0345626 -0.0203707 0.0165201 -0.0345257 
-0.0179747 0.0165836 -0.0345453 -0.0168596 0.017875 -0.0340014 -0.0223104 0.019197 -0.0345164 
-0.020196 0.0192082 -0.0344015 -0.0183037 0.0189143 -0.0337091 -0.0249977 0.000897278 -0.032628 
-0.0223007 0.000895064 -0.0324863 -0.0208012 0.000896212 -0.0334658 -0.0173399 0.000944501 -0.0329709 
-0.0237983 0.00208818 -0.0332398 -0.0219788 0.00265379 -0.0326481 -0.0198321 0.00215785 -0.0326352 
-0.0193237 0.00369899 -0.0333975 -0.0248686 0.00492616 -0.0327276 -0.0178413 0.0045981 -0.0328873 
-0.0160427 0.00494936 -0.0331257 -0.0193491 0.00554917 -0.032638 -0.0172729 0.00630149 -0.0329243 
-0.0239873 0.00707832 -0.0333728 -0.0221236 0.0071898 -0.0330136 -0.020367 0.00756585 -0.033092 
-0.024896 0.00847824 -0.0327026 -0.0181053 0.00777536 -0.0335264 -0.0232406 0.00915462 -0.0325041 
-0.0215371 0.00892927 -0.03304 -0.0248303 0.0102849 -0.0327535 -0.0213232 0.0106269 -0.0335875 
-0.0196305 0.010468 -0.0329364 -0.017518 0.0109096 -0.0332665 -0.0239402 0.0116955 -0.0334138 
-0.0221096 0.0121712 -0.0327311 -0.0164232 0.0123558 -0.0333915 -0.0246865 0.013235 -0.0328622 
-0.0199331 0.0135827 -0.0330893 -0.0233881 0.0145754 -0.0326925 -0.0217159 0.0139205 -0.0327909 
-0.0183315 0.0142556 -0.0325173 -0.0162052 0.0142204 -0.0331145 -0.0251292 0.014997 -0.0325314 
-0.0218723 0.0158549 -0.0329971 -0.0201526 0.0157925 -0.0324809 -0.0176672 0.01592 -0.0328922 
-0.0238613 0.0163048 -0.0325505 -0.0192497 0.017215 -0.0333062 -0.0249029 0.0177649 -0.0326975 
-0.023067 0.0176993 -0.0333613 -0.021277 0.0175135 -0.0333351 -0.0240431 0.0192073 -0.0333469 
-0.0210112 0.0192066 -0.0328126 -0.0167629 0.0192056 -0.0327993 -0.0264009 0.000899337 -0.0315023 
-0.0206702 0.000895576 -0.0316742 -0.0187294 0.000953117 -0.0318308 -0.0169265 0.000896965 -0.031229 
-0.025732 0.00247329 -0.0320544 -0.0242622 0.00177695 -0.031248 -0.0181487 0.00273577 -0.032266 
-0.0241942 0.00340159 -0.0320532 -0.0205391 0.00370525 -0.0320773 -0.0166807 0.00368931 -0.0318321 
-0.0263885 0.00405289 -0.0315192 -0.0225712 0.0043053 -0.0322645 -0.0189099 0.0041984 -0.0314996 
-0.0265335 0.00583232 -0.0313911 -0.0247475 0.00636605 -0.0316677 -0.0230117 0.0060225 -0.031979 
-0.0211844 0.00541664 -0.031992 -0.0165338 0.00545373 -0.0314498 -0.0261485 0.00754974 -0.0317147 
-0.0205712 0.00700058 -0.031399 -0.018938 0.00749649 -0.0319633 -0.0238031 0.0078764 -0.0313854 
-0.0220164 0.00806689 -0.0314511 -0.0169776 0.00788972 -0.0321369 -0.0261324 0.00934449 -0.0317267 
-0.020022 0.00896996 -0.0320272 -0.0179594 0.00943158 -0.032341 -0.0267285 0.0111467 -0.0312271 
-0.0231411 0.0108828 -0.0320268 -0.0212265 0.0108584 -0.0318083 -0.0177847 0.0108792 -0.0312872 
-0.0250563 0.0117368 -0.0317182 -0.019928 0.0120513 -0.0321479 -0.0178339 0.0123777 -0.0322823 
-0.0160897 0.0113038 -0.0319847 -0.026412 0.0128989 -0.0314995 -0.0234844 0.0126238 -0.0316759 
-0.0216625 0.0130056 -0.0312018 -0.0265029 0.0146904 -0.0314143 -0.0204269 0.014282 -0.0315117 
-0.016883 0.0141816 -0.0314592 -0.0219644 0.0160251 -0.0312185 -0.0188142 0.0166667 -0.0316536 
-0.0260763 0.0174682 -0.0312569 -0.0219891 0.0178213 -0.0312411 -0.0202746 0.0176973 -0.0318536 
-0.0174534 0.017615 -0.0323334 -0.0261711 0.0192053 -0.0316964 -0.0243799 0.0190881 -0.0315923 
-0.0226859 0.0191798 -0.0321829 -0.0193056 0.0191947 -0.0322399 -0.0177579 0.0191992 -0.0313007 
-0.0277524 0.000912541 -0.03032 -0.0253398 0.000897784 -0.0300527 -0.0227717 0.000900942 -0.0307612 
-0.0195759 0.000900419 -0.0302499 -0.0271069 0.00250689 -0.0308945 -0.021129 0.00236738 -0.0307534 
-0.0193561 0.00254602 -0.0309476 -0.0176149 0.00269086 -0.0305452 -0.0255372 0.00312322 -0.0302481 
-0.0228405 0.0028508 -0.031011 -0.0276734 0.00458423 -0.0303924 -0.0244494 0.00476399 -0.0309057 
-0.0226867 0.00487452 -0.0305641 -0.0206716 0.00409702 -0.0303423 -0.0174287 0.00445379 -0.0302632 
-0.0197245 0.00558278 -0.0306932 -0.0277688 0.00656158 -0.0303128 -0.024122 0.00675211 -0.0300327 
-0.0223634 0.0066367 -0.0304189 -0.0192433 0.00724815 -0.0302123 -0.0176714 0.00674543 -0.030928 
-0.0273899 0.0082871 -0.0306433 -0.0252183 0.00820809 -0.0303319 -0.0169606 0.00850641 -0.0304514 
-0.0277721 0.0100111 -0.0302971 -0.0243902 0.00955849 -0.0311747 -0.022316 0.00974909 -0.030906 
-0.0207808 0.00884964 -0.0304027 -0.0186924 0.00889064 -0.030795 -0.0239083 0.0110857 -0.0303621 
-0.0195782 0.0105415 -0.0311443 -0.0250326 0.0124519 -0.0300684 -0.0221535 0.0114656 -0.0303953 
-0.0204064 0.0119828 -0.0304214 -0.0189736 0.0132283 -0.0311877 -0.0167727 0.0125054 -0.0308391 
-0.0278568 0.0138046 -0.0302267 -0.02487 0.0138452 -0.0311848 -0.0229721 0.0142171 -0.0309844 
-0.0215176 0.0147524 -0.0300352 -0.0252367 0.015907 -0.0309905 -0.0235454 0.0158142 -0.0304038 
-0.0188541 0.0150061 -0.0309712 -0.0172637 0.0159097 -0.0311393 -0.0270045 0.0161027 -0.0304245 
-0.0202439 0.0161192 -0.0307148 -0.0276356 0.0177843 -0.0304297 -0.0241631 0.017347 -0.0311124 
-0.0192238 0.0184318 -0.0305917 -0.0171372 0.0176114 -0.0305689 -0.0230202 0.0192028 -0.0304236 
-0.020841 0.0191937 -0.0310334 -0.0290853 0.000926251 -0.0290417 -0.0230603 0.000894756 -0.0289952 
-0.0212985 0.000896051 -0.0297349 -0.0178586 0.000915645 -0.0297024 -0.0284368 0.00248882 -0.0296824 
-0.0260081 0.00207232 -0.0288657 -0.0242073 0.00218042 -0.0295001 -0.0189523 0.00222548 -0.0291375 
-0.0162076 0.00181681 -0.0298617 -0.0271124 0.00353716 -0.0290542 -0.0220231 0.00323064 -0.0294588 
-0.0190289 0.00395168 -0.0296347 -0.0290929 0.00405185 -0.0290312 -0.0259558 0.00484831 -0.0299248 
-0.0235735 0.00409361 -0.0292117 -0.0215091 0.0049965 -0.029048 -0.0280321 0.00549961 -0.0288972 
-0.0231057 0.00580108 -0.0289081 -0.0195063 0.00555406 -0.0289092 -0.0165276 0.00590466 -0.0297093 
-0.0260315 0.0066451 -0.0298672 -0.0208075 0.0066939 -0.0295197 -0.0180132 0.00655659 -0.0289334 
-0.0161519 0.00756791 -0.0291499 -0.0289104 0.00875984 -0.0292158 -0.0265071 0.00824384 -0.029079 
-0.0228968 0.0083668 -0.0299109 -0.0181948 0.00833289 -0.029162 -0.0260128 0.00978714 -0.0299916 
-0.0243527 0.00945085 -0.0293743 -0.0195097 0.00954581 -0.0293352 -0.0177148 0.00997393 -0.0297335 
-0.0292437 0.0104954 -0.0288779 -0.0275289 0.0110347 -0.0288111 -0.0257417 0.0112075 -0.0289287 
-0.0227237 0.0101971 -0.0292178 -0.0209427 0.0106299 -0.0293635 -0.0189873 0.0112466 -0.0296026 
-0.0285755 0.0123047 -0.0295424 -0.0268061 0.0123045 -0.0298597 -0.0172729 0.0116972 -0.0293266 
-0.0232818 0.0128132 -0.0299087 -0.0215802 0.0128044 -0.029343 -0.018418 0.0131443 -0.0294817 
-0.0160962 0.0133029 -0.0293849 -0.0291417 0.0139993 -0.0289889 -0.0241807 0.0143361 -0.029604 
-0.0200953 0.0136696 -0.0298568 -0.0175013 0.0146456 -0.0298427 -0.0285301 0.0156554 -0.0295856 
-0.0257774 0.0151428 -0.0294542 -0.024333 0.0160222 -0.0288084 -0.0190934 0.0149281 -0.0290624 
-0.0171225 0.0160744 -0.0288245 -0.0256629 0.0169507 -0.0295818 -0.0221989 0.0162438 -0.0292981 
[...]
POINT_DATA 10000
FIELD FieldData 7
id 1 10000 int
463 3779 7564 2736 6359 8197 1190 5071 1661 
1761 434 1099 2713 3821 1530 2181 2874 8422 
339 2079 6152 926 124 80 7684 2147 7738 
221 3764 4264 843 8834 169 7474 3275 5914 
7232 4187 4629 4215 7356 94 1471 3734 9152 
3579 4559 4488 8065 5755 9324 4532 1422 9073 
6119 2760 2321 4971 2876 4710 1720 3311 3923 
5952 7952 1429 7363 1224 953 6057 4179 4035 
4679 9280 6707 2566 3234 6312 9180 9519 4603 
55 6972 4633 3816 6862 8071 3903 9715 1002 
5619 1416 6821 9596 4266 9824 9771 4324 2867 
7884 2278 2466 7154 2783 3724 8940 2995 2382 
2545 5306 663 1552 8691 7748 4311 2893 4519 
2374 3860 1409 1425 3357 2786 1755 9372 4093 
4734 4525 3174 9721 7988 2808 6831 8201 9643 
4663 5281 4251 2999 4048 5660 5710 705 8476 
8557 6246 9666 5245 1151 3485 1342 2345 912 
2106 2890 3143 7424 2244 1020 8462 6711 3936 
4646 4130 5625 2028 2420 1848 993 4695 3246 
6915 9713 7370 1403 3491 988 4678 6826 9186 
4178 2125 3648 3409 2177 3547 4204 6270 7917 
6878 8398 6882 7820 3737 8802 2011 6633 1638 
1219 2242 9078 8473 7766 4166 2315 1921 3319 
3841 8738 4382 2024 2001 2563 4153 9077 99 
796 9039 2885 270 4661 2103 6635 526 4756 
1950 3763 7621 8559 8301 1405 2884 5630 6298 
1618 4002 793 7945 5258 3299 5616 2615 3361 
2061 3513 7713 5098 3960 254 3834 7352 3990 
6340 7103 4044 8854 5772 2021 8061 6895 9867 
6763 1375 1916 7433 6761 4308 564 9598 8818 
6506 4341 7108 9271 7869 8331 8261 3739 8707 
496 6565 8155 9277 1696 3947 4501 3158 8371 
7563 8634 9160 7639 6223 1290 7789 6065 2581 
8544 1733 1058 5316 5185 1218 2745 5493 1173 
9408 9720 7657 958 1475 7810 6177 9634 5788 
6764 3506 3068 1884 3459 4572 1380 3993 3371 
7595 4970 7425 6777 7089 9279 8640 590 2254 
4168 5909 4941 3714 5664 2660 9447 2568 2282 
4299 900 6750 9445 1216 4437 5637 5954 4773 
5425 6310 4699 1449 7643 305 7486 2362 980 
7912 9770 8693 5023 5486 3047 4884 1824 3334 
8247 7369 3476 3851 7134 6445 2787 4850 2252 
5002 1789 6118 1877 2166 8815 1443 8304 531 
5940 3088 2591 4490 5250 901 4510 9730 6109 
9854 8675 6808 3556 2274 4185 9734 7872 3730 
3129 3946 4246 1210 4879 3148 9074 1119 7901 
4182 3575 972 9051 6044 5111 2384 1900 7774 
3920 214 6704 2664 4274 7909 1851 8153 8379 
8266 9986 4126 8715 6538 7046 3028 6755 2804 
2197 8794 3331 9761 4248 2726 3353 3419 2336 
1788 3636 9059 6329 2295 5824 2014 5833 8926 
2428 3646 9228 3025 1553 6018 9286 4177 8489 
8232 7409 1298 9601 435 5856 3352 9617 8669 
4890 4258 3362 994 6779 2644 4895 4300 8968 
9362 5204 3589 323 8558 600 7948 6213 2789 
2107 9092 163 2036 7141 9640 6850 3461 1031 
7779 7625 3212 3611 2685 3407 1692 6800 3856 
8511 9973 9792 5900 7844 1233 1437 5939 9127 
8168 563 7829 6417 6678 1995 5386 4451 8938 
4593 7794 72 12 3590 7615 1749 5689 6612 
8800 6397 7548 949 4755 9563 2771 5169 5405 
7567 753 4598 515 4963 1286 1964 3125 373 
6964 8019 4041 3457 7024 1785 2579 6546 1309 
6451 6165 1679 6127 1740 1066 6648 3518 1123 
7963 8205 4122 4509 5603 9038 6897 1236 2030 
4313 4830 7641 86 3928 8477 8166 8269 1182 
9102 3095 6429 6214 6428 7090 3192 2483 8973 
7983 4648 4741 2414 7494 5024 6347 69 1699 
7249 2968 3396 6267 3682 6987 3406 3037 2045 
2341 5522 7915 4579 328 5812 1724 6670 6126 
9235 3034 1894 2316 8782 9889 1032 6601 5077 
7591 3377 4793 3400 948 4670 5699 9632 1625 
4330 6290 2501 4937 8096 9339 5205 9386 2217 
4552 6663 1047 215 728 3512 8023 3109 4456 
332 3033 1436 4000 3626 4059 8953 2535 8864 
1987 1786 1649 8527 1778 5888 67 5085 1043 
6863 2693 2857 1965 6115 3832 3090 964 1189 
2491 3630 5304 3628 5925 1248 8455 6322 1901 
7349 6586 7619 6462 4174 286 8703 8103 5235 
571 7900 4435 3927 2490 6064 876 1961 5278 
3405 1718 9057 7054 1556 5897 985 2755 4385 
8059 8858 8722 1810 1629 2179 5199 8892 525 
2199 8392 536 6799 8434 364 812 3748 5224 
8686 2475 3169 9806 521 1050 3593 3182 9899 
7142 4665 1927 5810 2796 142 4047 6420 183 
9940 1285 2895 6925 6790 1025 813 3656 1345 
2935 519 9558 3387 1399 617 3287 1476 1823 
4223 2245 2839 1817 2692 5008 3058 8105 990 
9470 6076 4858 7946 4424 6061 2955 1271 6708 
7898 4731 8750 6029 5564 1005 5797 1022 8729 
2831 1773 2236 8091 9901 57 5084 9530 5061 
81 8387 149 4839 119 657 1584 9236 2265 
2616 4784 4468 9267 8380 6813 1846 6158 1171 
9390 5143 6920 3876 7951 472 7270 2430 5844 
9625 2400 8596 9740 492 8657 256 906 2085 
4038 4495 4901 6164 5945 9291 7846 8608 8279 
2394 5388 7932 1547 2528 2144 384 954 6910 
8478 870 489 8618 1477 8296 8839 4362 4323 
5107 1541 3355 204 6436 5126 2578 4003 1244 
4698 1676 6334 5990 4200 1114 940 2496 7466 
7242 5721 3036 4444 755 7178 3101 937 7871 
8044 7048 8458 5804 7091 1666 932 1013 313 
1331 7540 4827 2788 8796 7968 308 8945 8694 
4309 4929 939 2913 6580 8836 8548 7080 3385 
2986 5128 2704 1393 935 4672 5076 1350 5288 
2283 450 8094 6030 5948 1812 5273 4485 278 
919 2437 9969 5722 242 4803 1440 5391 9739 
1801 6349 8118 2211 6990 7367 4568 4247 6444 
3221 5712 6885 5978 8319 1516 518 6646 9266 
7972 6092 6709 5530 1382 2243 9474 8890 2050 
7250 8067 7688 6249 8614 1784 8666 4860 2319 
6752 3410 8969 8659 9437 8249 8935 3042 4373 
2904 6372 9143 8474 6611 4191 8979 7393 727 
6335 8308 154 245 2746 968 5884 2261 7765 
9212 6754 9964 337 4466 4134 1904 619 7276 
1229 6507 6894 996 5058 2618 4512 132 7514 
2646 6594 7501 3746 334 3298 7155 6200 6938 
5495 2451 7993 3893 6222 5565 5442 6059 692 
6548 3726 2829 803 3254 1992 6803 5270 9119 
1120 3638 3267 956 9946 8573 6545 7430 8581 
2649 3044 6075 7490 2069 7549 6658 5016 2454 
5141 7427 7589 1343 2403 3606 3343 73 8704 
5611 4962 217 2500 9892 9723 8648 3122 3534 
6043 2807 3537 147 2175 8903 7786 2290 7874 
2950 6028 4192 5988 6209 3251 2811 7036 9477 
2648 3065 1856 6499 2543 6515 9769 354 943 
5534 9487 4915 202 84 4411 6900 7606 1521 
4932 1071 4128 3663 9356 4426 127 6103 3207 
3392 2194 4105 4620 1863 447 6983 7798 4927 
3380 1453 887 5013 6457 8928 8850 1779 1452 
131 2926 1254 6698 253 9441 8283 4666 802 
5724 2871 9369 280 3880 1775 962 1684 5208 
8841 6528 1722 9775 317 1007 5547 368 7581 
4486 2329 7858 544 5499 218 1431 8333 2504 
1619 9392 7362 2703 8889 219 9956 7469 7793 
9794 861 1533 1669 267 1858 5894 8664 2613 
976 2041 4268 5994 2200 621 8948 243 6363 
5708 5825 2939 4669 4800 2248 1208 152 4599 
2134 2239 4489 7027 4017 4401 3056 4061 9650 
1330 3987 7168 6271 4875 6946 7805 8646 404 
4318 8136 6542 2560 4632 4293 6373 4240 2729 
6978 2063 5605 5525 7468 7033 3140 1826 470 
7785 1129 1383 4920 6830 1397 984 8176 6354 
1765 4202 7007 5049 8367 9091 514 5956 7407 
7070 7492 7081 1979 6033 6798 4244 1802 7413 
9254 6130 7975 1389 3403 7047 4412 2373 3505 
5813 2297 9618 6134 5219 8677 1958 8676 405 
4448 5452 3524 7342 1624 4751 9781 651 5839 
4737 743 7925 1340 1324 3696 2742 1925 1610 
6844 9409 702 8391 6519 1487 1621 7312 4257 
3813 5915 5161 7782 4577 2688 9904 8609 3902 
2619 4876 7243 7998 8393 58 2585 5347 4701 
1337 3565 346 6387 5201 7761 6954 5117 6286 
4462 2360 7102 1744 5463 4314 5946 5996 5899 
6842 7100 8172 8860 5644 2406 4291 7957 6481 
1414 4260 8525 3215 3926 7791 6475 6788 4243 
4693 5441 3745 7971 649 530 2167 5312 7317 
7025 5371 6566 6102 8223 1576 5702 2564 153 
3811 6659 6133 882 8255 7903 9615 3578 1302 
2728 4835 9120 2667 9930 8226 3678 8407 5456 
2873 9489 9393 2395 8853 7533 7804 1855 6614 
6875 9909 3264 6358 4584 7131 6233 929 3386 
4998 8717 3601 8376 2777 3301 1407 7555 9193 
4255 5556 5995 4346 2196 4983 7429 6949 9081 
8102 6423 294 5177 285 7976 5684 3608 7416 
6740 7724 810 8294 2957 6069 9942 7706 2716 
512 2468 5551 1201 9388 7629 4195 8584 8188 
8635 102 4870 4697 5998 1080 547 8929 7471 
5354 1036 715 7454 9317 1299 4349 4777 5035 
633 2115 9273 576 8603 3952 9374 4125 1691 
6717 9283 3618 2725 8481 7681 581 505 4952 
9154 9375 5090 5540 177 4757 8823 172 7720 
1677 227 1048 2643 148 1795 9053 2914 8165 
7942 3337 9443 9185 1760 2421 1651 4278 8456 
6950 1033 6365 5038 4380 3910 4217 5643 5817 
6500 1143 7959 804 1849 5680 1653 6591 1101 
1800 4480 8466 7387 8526 5553 2227 3992 5110 
5380 3130 9760 5121 4533 7150 1326 9342 8961 
7345 507 9174 694 2952 8565 9448 6258 3128 
523 7238 1868 7648 724 5455 8030 3414 5517 
1770 8555 15 1554 9916 2609 3783 3607 9336 
1434 1491 2776 8993 4332 3569 8302 422 5277 
56 2268 8905 6622 4040 3758 7935 5344 3374 
1038 2104 9294 5320 4413 2320 5807 331 5445 
6596 1828 9712 4379 7519 1871 572 5114 8090 
9710 9096 2924 6887 2607 826 5754 1798 7287 
4328 4193 2154 9993 6568 5859 1694 6421 763 
3962 7476 2744 7928 2823 7859 653 6148 6597 
6377 2765 4150 1213 4787 5311 2361 6364 795 
5048 3054 3076 6325 8315 1001 8330 607 9049 
2324 1510 7550 7735 9204 1973 6452 3451 6014 
3368 8129 383 3466 3801 4147 5285 569 4430 
6857 8805 6706 781 2279 4377 638 4548 1264 
9737 6557 6588 7396 4721 7868 618 7412 3857 
3373 2493 8959 8213 4172 5529 6491 3961 1085 
8244 3736 8832 4120 432 5261 2303 3867 7473 
4556 8415 2901 4280 6859 2990 6743 9891 535 
167 156 9611 2339 9181 6337 8470 2764 1500 
114 4086 1641 3873 2076 4499 4391 2906 9808 
2183 7608 4767 3981 9076 4028 9257 4344 7006 
5835 9676 6168 3541 2962 1599 7580 1627 4874 
3383 4549 2714 9603 8620 5748 865 8423 5191 
1121 3723 3099 429 7088 8647 324 2062 1313 
5007 9755 4631 6960 5437 2438 5878 5332 2908 
4085 6715 6183 4124 9010 7464 8553 3647 893 
8361 7448 7463 128 1494 5433 1194 2669 2930 
5211 6261 400 9040 9300 3837 2155 7908 8206 
7889 1136 1193 9041 3722 9095 5492 4158 6687 
6415 1972 3673 378 299 2499 9241 2750 698 
1617 7836 4968 488 8369 1089 63 4688 9668 
4106 5372 1428 1628 6931 8299 10 259 8314 
9679 9425 3261 45 5376 9433 6825 4790 1938 
1771 7364 6524 1683 1222 8503 8483 1079 3067 
708 2743 4390 1854 9847 1723 5266 6085 5173 
3587 768 3168 9738 2848 5827 3446 5518 2458 
2072 5736 9407 4170 5228 9018 9117 2608 6147 
7195 6037 6001 5975 1963 5438 8807 1937 89 
4877 4394 6523 1267 5317 5282 2731 7530 3814 
6684 1317 5642 1970 5232 9540 3195 2933 4820 
1686 500 1108 1176 3818 433 8341 3845 7300 
3822 6348 2026 1054 537 3120 3955 5431 1295 
558 5368 5615 6767 1909 5260 5254 682 5510 
5414 2131 9221 8917 205 2053 1753 421 2582 
9876 6742 2757 4554 5356 6997 4738 2314 983 
6293 6652 2558 2534 966 7010 8355 9211 51 
1300 9341 6765 8712 8586 6404 9624 9560 409 
7461 9244 2781 6266 1111 833 5634 4360 7753 
6967 5867 1081 5029 3105 3571 6492 7143 7543 
4230 2551 9227 4374 6380 3796 7911 6700 4492 
452 5042 5732 4055 6939 4570 8222 111 6976 
412 8653 1392 6583 8560 8448 5167 5339 7457 
418 7497 4511 2506 3812 2091 6211 7729 7929 
1053 6918 4235 2937 1202 4904 3477 3057 2589 
6427 7162 3024 5451 8132 6789 5653 7109 6295 
4205 1834 5818 852 5535 2801 2312 1125 2792 
4392 4637 396 1059 4037 37 8992 4608 2647 
8017 8033 6027 9158 2513 2292 1390 5237 3780 
3112 5552 3685 1735 8670 3803 1363 2129 3156 
5151 2862 5319 9963 551 805 8014 3615 7527 
2697 9678 9887 7145 3778 7205 6056 4287 6388 
703 8698 792 4104 6854 5079 998 7518 545 
7074 8362 8955 7061 5796 4886 3965 5194 4181 
8278 2410 3008 6275 3154 9841 4108 3181 4142 
3495 1745 5843 4924 9355 8523 9893 2840 6406 
9103 5792 2686 322 2462 4551 5802 8401 2936 
8053 4649 5056 7257 40 1209 9486 4289 2676 
599 1845 2073 4683 6245 773 5259 7315 1041 
3798 1310 8995 8775 6175 7245 6982 9301 8035 
4381 497 3897 5017 1561 3430 3888 5711 7016 
5000 1278 772 449 9518 2918 4018 4612 6865 
6730 8107 6131 2306 1163 3594 3438 3470 6321 
7355 3616 5896 3425 5789 1523 1166 967 3621 
8259 6815 2286 314 2694 7284 6000 5054 7428 
3708 4978 7603 3938 4563 2182 8882 533 9422 
5599 3664 4575 6570 5823 3567 8271 9512 8237 
7687 4438 6619 2518 292 4724 6081 1260 118 
6695 3899 3520 2635 4173 2632 6569 7201 5314 
8399 266 3471 3453 3890 3995 3138 7853 7617 
7184 3631 1896 9839 8417 6579 6458 3500 8743 
3773 1232 8309 8658 1348 9462 1027 9807 4906 
6665 769 8575 2162 2284 9262 6884 166 8077 
4307 5938 1445 8119 2815 1235 645 9861 1172 
2184 881 5580 9058 1774 268 5015 9682 9182 
1747 7954 7992 4801 8051 8419 9813 7792 7487 
8724 2803 853 7221 498 872 2025 2881 2476 
2017 5213 6 1670 4100 687 311 9305 6156 
2456 1592 7083 1892 3598 5478 6620 6408 7644 
3996 1717 5200 4774 974 3559 4019 6241 3785 
201 2042 844 7478 4375 9045 7069 4239 612 
6086 5337 2851 4626 7378 6466 9145 3819 4857 
4899 5538 4547 8809 656 4560 1223 4925 2883 
1952 8909 3184 8390 8591 9268 5294 6066 8898 
4614 7749 3443 1010 9184 4727 8212 5253 6237 
1821 1065 8256 2833 1183 3839 5491 6898 6467 
7539 8837 8497 4812 7823 8198 1482 7405 5596 
1623 2308 752 249 8970 9108 7978 2984 6758 
5215 419 1652 3302 5505 3388 4657 9495 897 
5267 1352 3831 8982 5395 8930 3342 8115 2408 
4939 3003 2117 7400 273 6389 5467 7592 1941 
6913 3907 4225 5031 1495 3000 1498 9399 6801 
2174 9424 791 3711 5144 7772 9140 740 4333 
5717 2128 8038 9592 3059 3924 4867 6063 9463 
4366 7741 8052 5039 4682 5709 6917 2653 5125 
2888 4829 2654 9785 6867 3121 9699 7308 762 
6045 2057 9744 4597 1706 2102 2532 1197 5923 
2352 3671 4155 5582 503 5950 2346 7981 6080 
749 8143 7194 2234 1355 3209 7524 3002 908 
1835 5155 6922 3516 3266 5921 8785 8728 6905 
1873 411 4410 9327 1742 1160 9419 4768 2509 
5752 5059 766 6623 7451 326 3976 5862 6196 
2973 120 8467 4642 9418 2976 5690 3324 7459 
6638 2988 4008 8425 4605 6224 4001 4139 7123 
2915 6232 2610 3733 2809 4090 4930 1444 3115 
3790 7604 4428 5679 5066 1864 379 8822 7778 
8925 2964 3484 5032 3957 6942 9587 6049 6087 
5723 6998 7453 7079 7340 9660 9381 6291 7923 
7076 3142 9461 4676 2259 3700 8656 4686 9996 
1349 9843 6426 6603 2784 9167 902 2411 3933 
1347 4149 2071 2925 5384 4580 5588 9413 462 
8218 6574 5764 4836 6881 352 4460 1739 1872 
8840 2029 1356 1505 3670 1833 4611 9939 4586 
1526 1887 4101 8705 4031 5868 6099 6482 5811 
6776 945 1 6480 2634 9490 3293 5222 18 
884 6615 1105 4753 5545 4931 9779 3701 8007 
4032 7751 2090 6185 3427 9237 9988 6979 8491 
986 8549 8746 7503 2172 7570 2056 1807 6513 
3249 9784 6795 7383 4198 6006 2094 2860 8435 
4025 3106 4263 7041 6986 3805 567 3879 485 
7918 4630 5600 4103 1767 1639 7744 1412 9953 
6621 1705 1614 1130 5009 47 9885 53 9541 
1529 2972 4282 3307 226 7582 5198 3399 2730 
8154 891 5670 4893 874 8730 8070 867 7679 
4644 3072 8954 2651 2830 3970 3243 401 7347 
6218 947 9665 8454 1357 4667 4417 9674 9929 
9287 5231 2479 3244 9456 2150 8542 2375 9223 
6653 8321 1358 2486 8220 7183 9349 4520 524 
1044 8949 3137 8403 9360 1514 5944 182 7882 
402 4415 6375 3153 2379 2723 1893 7742 4183 
347 1668 1237 7840 3198 2583 4211 890 2487 
9936 8585 8008 675 9247 6345 4809 6564 6202 
885 7422 4766 7121 8480 6307 8117 8885 1750 
7916 7803 1451 7913 3504 8325 4837 8318 2921 
713 8654 1401 9396 3187 9569 1804 5392 6968 
5766 6770 4776 9284 3545 5062 2650 6341 9695 
2087 4212 4434 7176 4782 8344 4473 779 8430 
5360 6111 5019 3668 2434 9536 7209 8079 8010 
806 2145 4946 3980 6008 2974 3786 2238 9811 
1462 9146 1912 2425 6297 4284 8334 3576 2836 
9347 9900 8175 7043 9338 2627 9122 729 6841 
5733 6324 240 2497 9613 1127 8911 7301 436 
2038 7787 8859 3614 8156 2633 2440 1942 1096 
9015 8210 7955 5436 7506 8089 2522 2185 5504 
5751 8411 5937 2325 6304 7565 8501 5469 8814 
7875 8024 9684 9438 2503 8767 8789 7344 8611 
3075 4918 5531 5740 9428 8645 130 8124 3925 
7350 9344 5836 745 8791 1551 4651 7442 3969 
6940 2307 3499 2842 302 1648 5758 3986 777 
479 5248 7397 9636 5890 3124 6657 6924 6308 
2772 7725 4523 7754 9999 8695 3497 1055 7701 
7251 5210 4458 161 1590 4069 312 6879 7075 
8048 8847 9979 2301 8440 4711 2637 2180 3202 
6892 5974 1098 8904 1518 8600 5112 9190 1261 
3815 4687 6251 7612 6180 4760 7333 3871 54 
8580 6640 3333 6848 6932 258 7258 3288 1028 
4680 3718 6192 1211 7419 7977 3551 9394 9533 
1366 8396 7256 2612 4345 4367 3622 9292 2100 
3027 3806 2326 5593 7348 9350 8208 5703 5687 
4454 2598 5761 7759 8313 1307 9994 3572 1989 
9269 5341 1603 8652 8843 3740 7418 7410 5606 
3273 7066 9482 916 8275 5694 246 4798 4500 
9860 5 4363 2086 7313 275 8790 3869 6269 
2628 5138 2280 4537 8831 7019 3596 1203 174 
2163 5820 6521 8432 1862 5947 7674 1336 8418 
5044 9306 2116 1859 2226 2631 9250 2350 7732 
922 3426 4949 3488 5410 5074 7692 6832 3372 
1484 3318 5459 209 903 2629 4833 9308 4658 
5701 7297 1246 207 2861 8157 7689 5135 7658 
7670 5700 6772 4441 8863 839 7196 506 9033 
3242 1214 8956 8148 6272 4530 2230 9745 8760 
8066 9411 4722 2445 6909 9159 4673 2514 9924 
509 7261 9717 3494 9230 2255 2397 3250 7768 
5078 6194 3522 9429 42 4902 16 5651 3233 
5040 4083 585 5484 7368 6074 5330 3489 570 
3498 6535 8339 7532 9293 9790 7353 8496 6550 
6902 8766 5511 5292 6735 7163 9 4494 4636 
5587 3205 4252 3327 6254 5373 2707 2967 1217 
8923 2659 8436 4638 4873 869 194 5381 1305 
6965 3634 2218 8173 6326 2533 5233 5170 8826 
6961 2143 6015 1640 5403 3468 4796 6824 7038 
7813 1103 3020 8937 8012 3408 3725 596 5589 
2849 5657 4267 9168 5977 4305 9754 2471 3756 
3482 6219 4406 9503 6851 8370 1156 2605 4585 
5985 7329 4270 2007 1940 7299 5962 3889 3958 
5446 5853 3689 3194 223 5622 6327 8113 6487 
5366 1374 3390 6677 9351 443 3690 7185 7847 
1489 1064 9845 1177 6382 7758 5685 6393 5895 
2702 2684 7739 8460 6288 3018 7775 1903 2734 
5771 1766 3975 5148 160 3189 1078 7 1274 
734 4138 5515 2006 5082 7936 6229 5798 3193 
4842 9950 7863 6904 3859 4909 3389 3645 1993 
8888 7851 9531 7966 1293 6311 7247 7327 7296 
9153 5432 6774 5365 2225 1664 4157 8111 6532 
1402 6125 5641 8546 3525 3007 9513 5562 141 
6996 9047 8085 7783 6632 5345 8267 8264 7004 
5584 4528 9331 6516 2337 8356 2051 5355 8628 
2047 6336 2402 2695 1600 4745 3423 13 8820 
910 416 4852 4844 3900 4541 3328 5568 6208 
2349 4966 3344 3289 1459 7517 9651 2078 9139 
2012 41 5133 3116 7197 2687 1312 3345 5763 
4234 4985 5901 3284 4443 9175 5973 4832 4030 
2187 4747 2260 4368 4229 4618 3538 4689 3683 
5542 3669 4226 3265 3847 3245 6713 4726 8900 
4635 6343 4201 5571 2530 7328 431 3051 6113 
7662 3527 8751 553 3079 9050 4292 8182 1082 
2891 1362 9670 8641 969 9353 3552 9554 5612 
2204 6294 4660 1879 4558 9864 3585 8479 9821 
6090 4194 6089 6705 3916 2929 5342 6186 5026 
3599 8880 1321 5093 7026 4881 1301 6094 930 
5832 5338 32 4081 3577 3050 2275 817 6302 
7826 502 1061 8322 1419 1738 5220 6952 1398 
8533 1502 71 5473 4973 1070 7852 2593 2945 
8984 3063 1325 554 2291 4236 577 2794 1145 
9295 2748 3866 1511 370 3429 4121 5375 9773 
5328 4049 2931 5738 2089 2448 8563 670 1169 
7864 7480 7695 4634 7415 601 7659 741 8502 
5041 60 7039 8951 659 7001 1642 1272 6431 
2443 4164 2761 9689 7358 8378 6188 7509 1548 
2668 9330 5489 6153 7953 5885 9970 4337 859 
5095 1339 2222 8184 5401 3223 5803 1228 5961 
7696 248 2484 8742 3560 3950 730 9719 9594 
2015 4089 8242 2531 4677 1727 3248 3501 4099 
4718 3475 8260 6422 2074 9735 7289 8538 9872 
1635 1748 8803 4863 6609 8861 3401 913 4596 
100 3973 2018 1645 9971 8976 3177 751 2436 
3126 681 1980 9902 6259 9686 3772 1486 6469 
9130 8170 2060 4186 4845 5256 3252 3697 2342 
5251 3855 9581 129 9783 9201 7321 871 97 
2845 241 300 1997 5876 977 5780 4911 894 
3431 474 26 4022 3216 9884 838 7788 1579 
1192 4621 1985 1573 8528 5770 9333 668 4522 
2715 2250 2903 7402 3147 8868 665 9195 1024 
1460 7890 178 3172 4922 9178 3305 1984 9801 
1827 1685 2978 2899 4571 3659 5918 928 2689 
1107 4989 8509 1841 3110 4152 7467 3932 3035 
3760 2334 3107 3163 2439 64 4799 5632 8578 
2948 5361 9962 1421 4996 4831 1256 5351 608 
811 5257 6344 414 5398 3632 252 6498 7098 
4705 34 7572 3391 1675 4218 499 1568 8055 
5075 5284 3840 4865 5778 1704 955 9543 6464 
6489 3201 460 2793 3994 6599 1520 2662 2140 
6575 522 9052 3084 4508 357 8258 6673 2281 
4262 7655 710 3570 1929 7198 1154 3539 2422 
9642 8975 8627 8759 9756 9157 9982 7435 2847 
8629 3959 8513 2133 642 306 6425 2785 8045 
3472 2058 7873 2825 3214 3956 1074 6315 9865 
1088 4422 5092 9063 3444 934 6019 4281 9658 
8110 2824 8763 5799 2562 7384 820 6009 1243 
1814 348 1513 7411 8353 2770 2393 7878 517 
9663 5249 4073 6300 3417 2481 3069 6135 6908 
3651 4369 9213 1006 9589 1922 1935 7008 4769 
1996 2138 2013 7389 4129 6306 4514 9501 7493 
1926 1395 3738 7199 4926 4180 8806 6991 9675 
4919 8317 5132 2887 4256 7756 466 2066 7750 