# vtk DataFile Version 4.2
Generated by LIGGGHTS
ASCII
DATASET POLYDATA
POINTS 10000 float
-0.0191506 0.0023556 -0.0363729 -0.0183973 0.00458733 -0.0367565 -0.0191183 0.00627529 -0.0363821 
-0.0184949 0.00827125 -0.0367114 -0.0191408 0.0115054 -0.0363784 -0.0179036 0.0159606 -0.0369956 
-0.0187511 0.0174942 -0.0365797 -0.0180297 0.0191761 -0.0369405 -0.020243 0.000934796 -0.035781 
-0.0184627 0.000898255 -0.0355721 -0.0214691 0.00210433 -0.0350492 -0.0204132 0.00343324 -0.0356791 
-0.0205674 0.00542292 -0.0355844 -0.0200205 0.00775799 -0.035893 -0.021049 0.00919062 -0.0353069 
-0.0194241 0.00972921 -0.0362009 -0.0206136 0.0109141 -0.0355443 -0.0206201 0.0128137 -0.0355616 
-0.0177086 0.0130564 -0.0357083 -0.0207583 0.0146012 -0.0354814 -0.0192437 0.0137704 -0.0363164 
-0.017972 0.0148264 -0.0355988 -0.0194983 0.0157488 -0.036182 -0.0209495 0.0175119 -0.0353663 
-0.0200065 0.0191769 -0.0359069 -0.0225978 0.000901366 -0.0343328 -0.0205897 0.0008928 -0.034032 
-0.0234507 0.00252177 -0.0337578 -0.0189931 0.00248058 -0.0345936 -0.0219115 0.00384786 -0.0347715 
-0.0202064 0.00360453 -0.0339082 -0.019045 0.00444117 -0.0350893 -0.0221007 0.0056332 -0.0346494 
-0.0193709 0.0060995 -0.0344251 -0.0222132 0.00743119 -0.0345854 -0.0183378 0.00736331 -0.0351768 
-0.017941 0.00872751 -0.0340812 -0.0225545 0.00944847 -0.0343581 -0.0197148 0.00959421 -0.0341763 
-0.0183288 0.0105732 -0.0347656 -0.021981 0.0119808 -0.0347335 -0.0190205 0.012279 -0.0347678 
-0.0230094 0.0133023 -0.0340576 -0.0214122 0.0141081 -0.0338839 -0.0194089 0.0140063 -0.034461 
-0.0176548 0.0138202 -0.0340881 -0.0232584 0.0152298 -0.0338863 -0.0218737 0.015937 -0.0347962 
-0.0202052 0.0156883 -0.0341722 -0.0184353 0.0154353 -0.0339832 -0.0230598 0.0170444 -0.0340211 
-0.0192764 0.0170217 -0.0349338 -0.0176932 0.0170632 -0.0341006 -0.0230642 0.0191772 -0.0340201 
-0.0215548 0.0192026 -0.0349946 -0.0198153 0.0185807 -0.0342236 -0.018365 0.0192048 -0.035182 
-0.0240754 0.000896045 -0.033311 -0.0218097 0.000971977 -0.0327209 -0.018742 0.000894779 -0.0337975 
-0.0216139 0.0026459 -0.0333427 -0.0249362 0.00383876 -0.0326764 -0.0189467 0.00303482 -0.0327663 
-0.0232133 0.00416624 -0.0330751 -0.0206844 0.00508898 -0.0330313 -0.0189459 0.00474126 -0.0333229 
-0.0236224 0.0058208 -0.033639 -0.0247618 0.00693915 -0.0328117 -0.0228494 0.00727008 -0.0329149 
-0.0210741 0.00680779 -0.0333454 -0.018026 0.00742526 -0.0328482 -0.0238825 0.00864647 -0.0334481 
-0.0211621 0.00857412 -0.0336271 -0.0195402 0.00782285 -0.0339193 -0.0249643 0.00995632 -0.0326573 
-0.0236415 0.0106805 -0.0336278 -0.021107 0.0107002 -0.0338315 -0.0191723 0.011187 -0.0333041 
-0.0243865 0.0122221 -0.0330855 -0.0222474 0.0120958 -0.032964 -0.0205005 0.0125589 -0.0337919 
-0.0188796 0.0129502 -0.0331082 -0.0244082 0.0140163 -0.0330687 -0.0198843 0.0145645 -0.0328093 
-0.02476 0.0157568 -0.0328084 -0.0214664 0.0154816 -0.0327281 -0.0250317 0.0175163 -0.0326007 
-0.0230983 0.0181131 -0.0325746 -0.0213564 0.0175418 -0.0336233 -0.0187176 0.0178427 -0.0328529 
-0.024539 0.0192019 -0.032976 -0.0215977 0.0192023 -0.032976 -0.0175837 0.0190287 -0.0335821 
-0.0261256 0.00089514 -0.0317262 -0.0237129 0.000905823 -0.0315468 -0.018714 0.00092259 -0.0320043 
-0.026442 0.00264219 -0.0314701 -0.0248899 0.00209387 -0.0322497 -0.0228554 0.00241049 -0.0320679 
-0.0202026 0.00178504 -0.0325345 -0.0237108 0.00382121 -0.0313539 -0.0217178 0.00395026 -0.0321063 
-0.0200151 0.00380465 -0.0315416 -0.0187689 0.00510277 -0.031575 -0.0260281 0.00577754 -0.0318063 
-0.024287 0.0053836 -0.0320306 -0.0222962 0.00562171 -0.0324422 -0.019471 0.00637757 -0.0326516 
-0.0215573 0.00704602 -0.0316291 -0.0256135 0.00836817 -0.0321467 -0.0222878 0.00865891 -0.0319273 
-0.0201648 0.00800792 -0.0322313 -0.0263964 0.00989806 -0.0315054 -0.0240195 0.00892563 -0.031527 
-0.0205814 0.00974668 -0.0324031 -0.0188818 0.00920229 -0.0326348 -0.0237966 0.0110582 -0.0318562 
-0.0222728 0.0103574 -0.0325088 -0.0257025 0.0114678 -0.0320411 -0.0206307 0.011544 -0.032319 
-0.0258736 0.0133344 -0.0319415 -0.024256 0.0127266 -0.0313549 -0.0210919 0.0132822 -0.0322617 
-0.0245964 0.0146581 -0.0313973 -0.0227019 0.0141923 -0.0325278 -0.0181207 0.0144553 -0.0324741 
-0.0261973 0.0154812 -0.0316786 -0.0264184 0.0172571 -0.0314841 -0.0230727 0.0162446 -0.0324108 
-0.0201052 0.0166693 -0.032676 -0.0179633 0.0162425 -0.0324607 -0.021483 0.0178006 -0.0318556 
-0.0259532 0.019191 -0.0318716 -0.0243065 0.0185422 -0.0313193 -0.0198526 0.0192028 -0.0325395 
-0.0180925 0.0192058 -0.0318719 -0.0276321 0.000897073 -0.0304381 -0.0219838 0.000896394 -0.0309399 
-0.0201887 0.000894897 -0.0309813 -0.0250355 0.00242851 -0.0303727 -0.0232424 0.00223298 -0.0303257 
-0.0211928 0.00248161 -0.0312221 -0.0181149 0.00245895 -0.0312797 -0.0273305 0.00399489 -0.0306975 
-0.0221981 0.00388498 -0.03038 -0.025453 0.00406616 -0.0309769 -0.0273247 0.005755 -0.0303555 
-0.0252311 0.00563888 -0.0301381 -0.0204635 0.00565232 -0.0313439 -0.0268042 0.0072709 -0.0311627 
-0.0248894 0.007157 -0.0310361 -0.023213 0.00652729 -0.0311584 -0.0203043 0.00732022 -0.0303685 
-0.0187229 0.00718199 -0.0312104 -0.0276503 0.00879379 -0.0304078 -0.025864 0.00859133 -0.0303931 
-0.0225293 0.0092033 -0.0302336 -0.0208145 0.00906878 -0.0307513 -0.0190306 0.00891819 -0.0308749 
-0.025015 0.0106305 -0.0306075 -0.0231564 0.010883 -0.030192 -0.0215299 0.0108294 -0.0309441 
-0.0197045 0.0105878 -0.0310869 -0.01795 0.0105692 -0.0314864 -0.0272273 0.0113248 -0.0307911 
-0.0257664 0.0123195 -0.0304662 -0.0225134 0.012308 -0.0312029 -0.0192092 0.0122644 -0.0314882 
-0.017548 0.012161 -0.0307476 -0.02753 0.0130748 -0.0305194 -0.0208016 0.0124542 -0.0306771 
-0.0279584 0.0147723 -0.0301327 -0.0259505 0.0141326 -0.0303401 -0.0230606 0.0139635 -0.0307816 
-0.0213488 0.0144766 -0.0309499 -0.0194547 0.0140121 -0.031156 -0.0225934 0.0156793 -0.0304663 
-0.0192309 0.0158213 -0.0312693 -0.0175056 0.0158228 -0.0307643 -0.0278227 0.0165547 -0.0302558 
-0.0247806 0.016508 -0.0311354 -0.0209777 0.0162217 -0.0311674 -0.0230062 0.0173604 -0.0309445 
-0.0197527 0.0178437 -0.0313702 -0.0179942 0.017537 -0.0312249 -0.0272641 0.0186689 -0.0307538 
-0.0254814 0.0192105 -0.0301425 -0.0226225 0.0191995 -0.031222 -0.0208406 0.0192026 -0.0309304 
-0.0191083 0.019206 -0.030395 -0.0260832 0.000938968 -0.0295373 -0.0243095 0.000894371 -0.0297907 
-0.0225966 0.000896398 -0.0292606 -0.0207141 0.000903469 -0.0292661 -0.0189124 0.00106575 -0.0297292 
-0.0287867 0.00227479 -0.0293302 -0.0270572 0.00246899 -0.0297902 -0.0216628 0.00241353 -0.029497 
-0.019859 0.00257012 -0.0300191 -0.0278954 0.00384907 -0.0290008 -0.0243326 0.00389056 -0.0295846 
-0.0186293 0.003862 -0.0302781 -0.0261587 0.00417083 -0.0293329 -0.0211554 0.00523643 -0.0297454 
-0.0177676 0.00511428 -0.0292865 -0.0290072 0.00525987 -0.0291162 -0.0229449 0.00540077 -0.0297837 
-0.0192253 0.00591286 -0.0300432 -0.0284986 0.00690553 -0.0296333 -0.0262039 0.00707629 -0.029481 
-0.0244184 0.00701674 -0.0293122 -0.0226763 0.00748292 -0.0297381 -0.0291987 0.00840143 -0.0289305 
-0.0189319 0.00795022 -0.0293627 -0.0286041 0.0100278 -0.029515 -0.0242593 0.00910253 -0.0297543 
-0.0193213 0.00996118 -0.0294487 -0.0211038 0.0102173 -0.0293161 -0.0178048 0.0109146 -0.0294856 
-0.0284952 0.0118509 -0.0296303 -0.0267516 0.011335 -0.0290598 -0.0244196 0.0118439 -0.0293572 
-0.0193599 0.0117641 -0.0297745 -0.02939 0.0130975 -0.0286934 -0.0259098 0.0130699 -0.0288449 
-0.0243888 0.0136156 -0.0296251 -0.0228278 0.0127315 -0.0294836 -0.0184998 0.0133423 -0.0297872 
-0.0225869 0.0144787 -0.0291276 -0.0203459 0.0138265 -0.0296086 -0.0292476 0.0148841 -0.0288715 
-0.0261204 0.0158678 -0.029934 -0.0243931 0.0154022 -0.0297733 -0.0209976 0.0154994 -0.0295207 
-0.0189101 0.0150881 -0.029663 -0.0291876 0.0166855 -0.0289334 -0.0198356 0.0168137 -0.0299042 
-0.0277263 0.0177331 -0.0289074 -0.0260605 0.0176184 -0.0295678 -0.0242755 0.0174281 -0.0296729 
-0.021446 0.0175808 -0.0300786 -0.0183193 0.0176714 -0.0294659 -0.0285276 0.0191984 -0.0295868 
-0.0267094 0.0192073 -0.0288352 -0.0237342 0.0191883 -0.0297369 -0.0219537 0.0192057 -0.0295187 
-0.0297643 0.000897937 -0.028347 -0.0278279 0.00089408 -0.0286601 -0.0249246 0.000896257 -0.0281062 
-0.0193906 0.000893593 -0.0280046 -0.0175927 0.000897594 -0.0285213 -0.0273515 0.00243507 -0.0278803 
-0.0256853 0.00245211 -0.0286356 -0.0239004 0.00226929 -0.0286559 -0.0223121 0.00243649 -0.0278236 
-0.0204074 0.00235405 -0.0282176 -0.0185342 0.00242364 -0.0283808 -0.0302836 0.00315508 -0.0277931 
-0.0248669 0.00384642 -0.0278466 -0.0231188 0.00398222 -0.0282626 -0.0213364 0.00390459 -0.0285564 
-0.0195459 0.00390184 -0.0287312 -0.0287819 0.0043353 -0.02752 -0.0266745 0.00407543 -0.0276163 
-0.0283248 0.00644023 -0.0279191 -0.0268547 0.00562248 -0.0285399 -0.0242789 0.00538296 -0.0285843 
-0.0227097 0.00614495 -0.028167 -0.019979 0.00562396 -0.028445 -0.0300839 0.00714001 -0.028009 
-0.0262089 0.00707454 -0.0276824 -0.0212272 0.00682721 -0.0289074 -0.0183106 0.00656548 -0.0283939 
-0.0274869 0.00797395 -0.0286042 -0.0258168 0.00865409 -0.0286098 -0.0236048 0.00767215 -0.0278564 
-0.0223197 0.00874581 -0.0285081 -0.0206209 0.0085114 -0.0290524 -0.0298498 0.00991325 -0.0282226 
-0.0272286 0.00973957 -0.0283848 -0.0239711 0.00943306 -0.0280116 -0.018015 0.00976041 -0.0280669 
-0.0284699 0.0110474 -0.0280325 -0.0252702 0.0103448 -0.0288547 -0.0226719 0.010581 -0.0284929 
-0.0190996 0.0111873 -0.0281011 -0.0302147 0.0116364 -0.0278739 -0.0211779 0.0122851 -0.0289246 
-0.017806 0.0123864 -0.0284349 -0.0276063 0.0127431 -0.0283538 -0.0261127 0.0148153 -0.0284854 
-0.0241005 0.0146432 -0.0281696 -0.0212612 0.014373 -0.0279202 -0.0194268 0.0142098 -0.0281134 
-0.017692 0.0143713 -0.0285551 -0.0276379 0.015743 -0.0286597 -0.0197371 0.0159653 -0.0283279 
-0.0252928 0.016414 -0.0284401 -0.0231359 0.0161452 -0.0287324 -0.021479 0.0161559 -0.0279248 
-0.0175703 0.0161162 -0.0289708 -0.030337 0.0175814 -0.0277306 -0.0261038 0.0178792 -0.0277942 
[...]
POINT_DATA 10000
FIELD FieldData 7
id 1 10000 int
1199 7173 4841 7117 5626 7130 9573 8003 7266 
9593 9890 6768 4241 7529 8997 7226 8484 9568 
2120 7191 1721 9866 6811 2392 2151 2584 9718 
9818 6746 5174 6667 9249 1372 4674 1544 9566 
1424 1447 1084 7132 7078 6936 9917 5418 8737 
9741 1808 6230 6644 6872 5728 9983 1280 9523 
5573 7231 9870 855 5729 5209 5785 6642 9957 
5203 6559 5383 7286 3162 5982 9767 7568 5566 
9133 8141 613 2305 367 4371 2368 110 5275 
8350 9043 7437 6589 7175 2858 6877 4472 2886 
7219 7683 7057 3676 7334 6465 3721 7215 2775 
4442 6473 8517 5102 8215 5004 3236 3713 9259 
9888 6617 6930 6572 3048 6737 8531 9035 7651 
2137 2189 5119 2859 4780 5393 3458 1450 7969 
7447 3108 9134 7535 4115 8202 9329 8720 8233 
6207 888 4329 5579 8726 6721 7712 1612 1566 
5091 8848 9829 3709 1978 9026 1276 8416 4310 
5955 1479 3483 8289 7336 2977 9060 5293 8933 
9764 5678 7924 8624 9113 3776 7691 3949 4398 
5217 2870 7420 6694 9591 7933 6969 5903 944 
7009 7795 5374 2820 2264 8069 1488 2453 3085 
2672 8140 4285 9677 4592 875 6508 9138 8506 
425 4162 8504 6172 5561 5086 8348 7306 8541 
733 4102 3777 6181 6729 61 6353 2153 9649 
7747 9124 501 809 9641 6901 7283 2435 165 
9672 7636 1410 6381 5123 857 185 8879 372 
3940 3440 2557 2536 4536 5378 5298 3588 4888 
6187 3139 8830 7211 9027 2246 5289 4119 756 
5037 8668 1368 3336 559 3720 8139 9850 1608 
3384 8697 7947 1606 5183 233 8872 3001 1538 
7138 4148 539 2201 8856 8080 4378 707 776 
170 6026 3719 9749 2997 6003 3820 2158 1517 
389 8708 7126 9932 8745 9921 9328 2852 9952 
5457 7950 5052 3768 8262 5999 8650 1867 582 
9093 1351 5364 350 7320 644 1693 5924 9707 
3351 2159 6847 9858 7562 8667 7546 7757 8535 
615 680 4587 5548 516 676 4478 6378 2327 
9562 538 2855 3260 9517 9654 133 3346 9626 
807 4797 4066 9505 6766 8764 9697 9897 4654 
2092 9498 7566 4758 2386 7438 3687 5922 6786 
5268 7730 6974 2417 2404 8625 1655 6903 3688 
6604 1594 9475 7160 746 8192 7255 6664 2464 
7842 1174 709 9401 222 3846 3744 5688 7769 
5782 2396 2304 2553 723 3222 6474 8942 7281 
395 854 78 8209 2031 7667 9472 7943 6367 
1805 9206 8788 5786 7672 5524 2317 5094 1371 
6413 1039 9975 9104 8084 5053 9314 9700 3762 
9367 3200 4353 8811 4447 8217 5325 3605 8876 
3650 8912 2767 4432 5936 1319 3858 9238 7816 
7241 7534 8162 5043 3502 7862 3712 1991 8687 
5854 2054 5120 9925 9090 9481 6477 8101 6718 
3449 1467 4507 5262 672 8011 6432 1234 4979 
7538 8354 9311 2142 3295 7477 8375 9727 9576 
9132 6151 1524 7854 7914 7049 8919 6956 6221 
6281 3325 2712 2052 375 9202 8459 1956 1581 
5241 1191 1461 6807 5387 9366 2588 2822 9826 
9798 3339 510 842 5933 5496 9406 9165 3086 
7414 4039 5808 6675 2525 98 1135 1842 8784 
5109 9552 7819 1186 5131 318 8709 5255 2841 
3793 7193 6007 831 2299 9780 3338 9001 5537 
5212 1386 7426 9189 8452 8797 8015 1496 3808 
9588 689 7656 1465 6958 5406 9848 3564 7801 
1132 8160 2190 3804 1332 2195 310 5367 548 
4487 7180 3951 695 2253 4123 627 5440 8545 
208 9752 6649 6549 9534 999 7760 5646 8493 
4583 7967 7974 8337 8922 1165 4984 4521 4770 
9931 9628 2474 8655 2597 9722 4461 403 5300 
9667 6392 8359 9150 6668 9205 6947 5335 7472 
8227 5756 9880 155 5188 3240 7755 5045 9089 
6328 247 2512 1719 1077 3881 9061 8465 3833 
14 7292 5558 4818 3247 5324 4062 9431 4222 
8273 6703 8692 5790 353 2492 787 4058 6301 
7686 9219 1598 3089 780 440 6371 9874 9896 
4610 3276 2663 93 7590 4227 2844 8902 7223 
8740 1215 4529 960 2894 3340 3455 2872 2856 
8672 8643 2037 6912 8495 1396 783 9912 6004 
6495 4117 5743 8597 8461 2759 7551 8282 2084 
5957 9385 8749 2364 3350 8254 2620 7673 9714 
5776 4883 7373 6509 2146 9494 6874 8750 6226 
683 5864 2573 5326 7895 6716 7323 7030 744 
4393 1780 2376 6439 1575 7536 3377 5063 2916 
8507 2369 5621 2354 5265 6025 5221 4253 3014 
4566 9585 9066 8595 5773 104 3988 7295 9820 
1923 2737 3326 8306 8447 1133 5544 5983 276 
1975 6973 7888 7137 9231 3416 911 8001 5787 
6608 7984 4294 3597 6412 7114 6629 4504 8285 
1308 3229 3850 4477 9819 181 1504 9416 7677 
7017 7542 6263 3590 8263 9506 7690 8022 3604 
435 6061 850 2805 2843 6672 8731 274 3882 
8985 8081 5247 8935 1316 9514 7097 9768 9427 
2834 1023 6662 1346 6433 3794 2016 5171 2739 
1381 1216 1582 4309 4545 9919 6804 5737 5111 
525 6546 6510 1378 7965 1860 5574 9038 2283 
8288 6217 9664 9742 4059 586 7270 2160 7235 
7501 1786 3921 1239 3382 5462 3746 731 1577 
8018 8934 799 3118 1399 9989 6236 9991 3387 
3672 6937 9468 7531 6017 9616 3167 4607 4109 
3717 5716 8457 2979 1042 7307 9492 6959 1438 
4848 4042 8800 571 6670 6376 7354 7003 4961 
8387 2173 9990 2412 5696 6114 3931 5522 3972 
3835 8669 3101 4045 4761 2472 4890 5404 985 
3034 5084 6994 8610 6780 8747 9339 3730 3073 
9878 127 2265 7765 4407 8699 9822 9792 5205 
7142 6499 790 2579 2409 7144 5886 9516 6850 
4358 3407 5273 8596 1596 5718 4408 7983 8973 
6164 4927 2587 9763 9761 5085 7127 8279 4470 
7395 7643 8693 4320 6053 1583 5302 7834 4006 
7271 9334 5978 255 2905 9197 2252 6734 8938 
8626 7220 1891 5604 705 6462 8076 6106 5187 
4997 8854 8221 4003 7919 7915 5942 7390 2276 
5405 4572 4731 8614 1045 5329 376 7520 2599 
6808 1961 568 1470 7242 6461 2469 7591 3141 
1711 8571 8434 2644 6209 8073 7869 8380 8096 
3109 5288 4411 3748 9905 6213 7370 6537 1449 
1965 5128 5916 6054 8269 492 9443 1659 9464 
9708 9986 3513 6123 3331 813 5442 256 2034 
7844 3628 33 5304 1801 5556 2947 6182 4974 
3353 1093 6755 8475 6351 4451 3330 7657 5386 
7339 2606 5692 9599 9161 3490 7249 8926 1541 
7240 7633 6558 1443 3459 1343 6249 2032 8547 
2552 6247 4382 2591 4044 368 7581 3770 8640 
7425 9889 2831 4424 7786 679 5742 7380 4308 
8489 9854 1556 4160 4910 3799 2965 6506 8722 
1810 9143 5825 6070 5884 2679 584 9655 6613 
6648 521 600 7925 7342 4791 1947 4958 5954 
7641 9074 8892 5994 183 2704 7782 5161 3412 
5263 8049 6044 9770 9299 7090 1812 8657 2769 
6897 6941 5316 67 2585 4027 5493 2773 4223 
1863 8609 9809 8875 7639 5888 8928 4384 6693 
8794 3028 4620 6709 2528 4247 109 9577 5258 
4266 958 563 8319 8046 9657 1439 2968 2069 
4850 6849 8593 6397 7733 8815 2341 8782 7946 
2578 7589 5235 150 3316 876 1724 5611 9254 
3474 3268 4849 2175 8249 9392 6779 4168 6134 
727 9273 7466 3349 1046 1210 9601 4937 6883 
3665 8707 8818 819 8623 1229 8694 6335 4699 
7901 5143 8945 337 5804 1469 4452 8371 3739 
4061 6507 6594 2924 4864 3282 9445 7625 1987 
9267 1521 5915 4599 7646 1405 4901 5058 5722 
6365 92 8205 5859 7131 3150 4097 5486 6428 
8646 2082 3409 6545 7387 5117 3716 6556 6483 
9059 2362 2787 7430 5422 8295 8201 7490 1326 
8573 950 9612 7341 9802 4710 8802 12 5551 
7550 5530 9302 2498 1962 1219 5208 145 9029 
8358 3923 7054 5169 7898 8367 8729 5897 8648 
1185 847 2816 3088 633 6043 9793 4543 9632 
3457 2024 7413 2261 7047 5697 7294 7948 6372 
736 6923 5204 9390 1047 7533 7903 8255 3191 
5637 4122 6310 8559 1610 743 8407 3979 1889 
4633 84 2076 8470 3715 1692 2685 4830 4495 
6946 2320 1507 9160 6065 9899 8864 8376 2781 
5038 6790 7287 5228 2249 2985 7870 3547 6954 
6548 7928 4350 6055 2726 1547 4240 9099 5826 
4323 6214 984 5946 9342 5975 1075 4324 1699 
5788 8565 9380 4794 2401 1380 9666 2466 2166 
8703 6064 8188 6706 8635 2149 1535 8408 2771 
2545 2504 3004 3272 9723 8333 4200 2539 7766 
57 7081 7454 9336 4156 99 8061 8675 4041 
7433 1431 5219 4275 5735 2595 5699 1331 8832 
6427 1731 965 9092 2660 9618 4192 5988 8415 
6814 5964 1950 7621 4413 3337 9096 5415 9640 
8510 6925 6429 996 202 3496 4047 1033 7006 
7959 7988 9721 1851 1002 2437 2646 152 2636 
2766 7945 8301 9973 7976 4314 4426 7580 8526 
5225 6764 964 7932 5996 2061 865 5553 9192 
9018 2208 7763 5281 5710 5098 5724 810 5048 
6037 6858 6624 1297 8827 6878 6092 4362 8176 
7543 8404 2671 637 8450 7352 2045 3025 1684 
7427 8067 495 1072 66 8473 2021 7178 2490 
5547 8929 781 1284 9935 4963 1298 7412 6588 
5238 1790 1099 3607 892 9271 81 2316 2776 
3454 2991 8458 4412 9447 9598 9362 3182 4952 
2643 4790 4821 941 2885 6799 7774 6931 983 
3491 7748 7909 308 8090 4804 9372 526 8836 
6271 6500 1662 6862 6312 2745 7429 7789 7917 
1618 5948 5565 8023 4875 2560 8712 7857 2519 
5619 5176 1995 6457 5173 1694 7504 7011 8957 
3058 2324 3446 8679 7369 2483 3466 7143 6854 
7148 4319 6741 5472 3737 72 8478 2406 7957 
7061 5295 1877 3834 6334 6475 7688 5455 9879 
912 4970 5990 128 9010 4868 8988 9279 755 
8555 7908 9395 2516 6711 218 9241 3195 9812 
1913 2501 6761 6165 2564 537 7457 8993 7136 
8999 1740 7793 2499 205 5492 6295 3270 3920 
488 3947 7356 1066 8558 6363 167 4968 988 
1119 6750 7942 9710 2764 2070 4334 3648 9277 
1696 9964 2757 5835 2465 9643 6030 346 132 
58 2314 6669 914 9025 1254 8456 9847 5319 
4233 2611 4971 8168 4105 7367 6967 5197 2765 
5088 2119 6885 1510 8983 8058 589 9596 4291 
470 4170 7724 5234 4048 9824 3221 5878 7911 
5793 8977 8588 7595 9228 1638 6857 7791 1446 
3259 953 7631 5940 7971 3745 6183 7396 5118 
663 9730 15 6918 6205 2420 4187 515 9041 
433 6579 1328 4359 4130 7393 9956 6717 2932 
9806 6028 3722 5615 8995 8369 7351 3734 3626 
6290 4670 7469 2268 9891 299 3120 2053 5865 
1400 5510 343 8065 7893 2400 8853 4737 4556 
6950 8299 1925 3601 3987 8503 7265 9077 1025 
8266 7951 5754 4401 1735 3615 3144 1058 5905 
6420 8166 1599 1653 4230 4178 9969 5110 706 
285 2227 6597 7753 4563 2876 3418 9720 7494 
7349 3992 1885 6282 1155 7972 5008 1397 6001 
6864 9216 28 6350 4858 3406 8805 4124 8653 
9040 7234 1667 6057 9078 5812 5141 4177 2297 
7464 8206 9310 5831 2454 9145 2345 9617 7089 
2091 3845 5792 5828 4603 6102 2115 5802 7162 
7300 3234 7872 9236 6601 5839 56 8244 5653 
8020 8775 3357 4646 993 2647 4637 3873 2181 
7141 472 243 1302 1628 6337 4601 4756 1350 
8165 1798 7109 8670 1723 6292 5755 7912 8261 
4344 2183 4976 1235 3308 926 5425 5817 1854 
6846 5900 3056 1683 5680 7802 8197 5616 8393 
5748 5823 5852 8608 795 9049 6492 550 9771 
802 5712 2468 607 7083 8842 144 5444 9252 
7713 8839 2952 383 6700 1717 4104 3652 3358 
843 6708 8103 2278 724 4430 6261 5339 5502 
6476 1007 1494 6690 8738 8858 4185 4598 962 
649 418 530 5465 7174 1375 317 9355 9734 
9057 5894 2904 4172 3818 8399 2936 3138 5535 
7152 6710 1013 6754 882 5344 5414 8417 9180 
6663 7968 313 3678 1054 2554 9051 1641 5000 
3897 6237 4719 8379 4915 8823 9212 6825 2513 
6293 834 8511 5076 4255 7476 9158 9713 4559 
8634 2194 2744 6525 6191 5789 4463 4257 9193 
6085 3594 4339 315 4144 4568 6222 9244 7527 
2810 3174 7046 9558 3778 8644 7023 1408 6821 
6417 5388 9946 2926 1313 6000 3938 5838 3434 
7684 69 9634 2438 5200 7884 6118 3926 3215 
111 6976 7478 2161 3045 8940 8780 531 9775 
4394 4924 5125 4299 7474 9563 9901 6557 8448 
3623 8462 5664 1053 8341 7853 8402 6159 3829 
7952 5702 3867 400 2073 4551 9103 6635 1168 
8059 2395 505 8898 4259 4679 536 1584 5114 
497 1500 355 797 4695 7108 812 2950 535 
3685 396 4678 4000 5603 9909 2862 5253 8326 
1425 9625 1208 3264 9433 8483 7926 4405 1883 
7563 6580 9739 1048 6568 2962 1895 3903 6298 
3813 8094 3962 8014 8724 7622 2549 4734 7614 
6542 6803 294 7487 9021 8247 5270 7798 8115 
8488 3764 956 7205 4908 2760 6270 5833 3851 
6075 1901 3567 6740 9399 5323 6246 3037 1291 
1770 7448 8222 5642 844 2863 2315 9437 8584 
4877 6086 3899 7741 5797 6684 4427 6685 1022 
9892 5277 9540 2840 5843 3332 4936 2028 7920 
3534 8213 1176 9381 1471 8968 6451 9154 8917 
8309 5412 1858 378 1310 166 5271 3821 2282 
5372 852 881 9172 9258 2874 8796 6938 4268 
9181 1278 8146 339 2535 1403 8155 7963 5711 
2683 3640 5215 9188 9740 1222 2743 8107 3083 
4425 3090 142 6200 6990 887 9058 6891 8259 
80 8071 3630 1823 1476 2361 2480 3621 4211 
5104 2147 2716 7284 7459 1939 374 6882 3636 
6373 9266 3831 872 5399 4188 2014 7134 8129 
8955 5054 8271 6513 1429 3311 2319 7250 3927 
8525 3495 2518 4239 9140 3485 4765 4195 1789 
89 3520 4035 9235 618 412 4683 3143 4941 
5199 2050 5499 8809 5923 3724 2496 3736 7473 
1845 3184 656 8656 2079 1224 9095 503 138 
9493 2753 5625 4757 2155 6665 8909 7524 6801 
1020 7276 3524 7617 3752 1303 8392 1778 619 
4392 6884 2833 3104 6707 8717 9993 3425 2815 
8017 5863 3397 4274 6915 9904 572 8355 5552 
602 5013 5525 2848 8497 6758 5023 8544 7846 
8620 6730 7330 1157 5185 1285 7761 7010 6913 
4753 6831 221 3140 792 6570 7644 4939 4498 
5071 7820 9408 512 1826 8296 1498 3796 4492 
3546 7103 6987 3682 6436 3154 6939 4181 7687 
1864 664 6763 3403 1802 1317 5167 118 2343 
5337 5723 6633 6466 40 3819 3841 5077 8704 
5211 3812 2352 8591 5477 6109 994 6964 2506 
8401 6607 5538 4153 657 7874 2589 4191 3798 
2103 6515 6596 7013 5670 909 2382 4246 4311 
7048 5452 4906 908 8218 9152 6972 9039 702 
9211 7316 6688 7129 6359 3593 6875 6765 7016 
1747 5580 6843 7514 3302 5395 7486 2935 805 
7954 9020 5675 7405 8633 1052 1218 793 5939 
9127 2694 2025 3487 6445 6364 7592 9075 6352 
6347 5177 7150 4983 4139 5213 7428 8491 2114 
9324 6678 7829 5463 5605 4666 5644 2456 3996 
5796 6496 7218 546 7727 3646 5371 1937 3008 
6523 5194 5144 5679 446 6777 7629 2410 1745 
6917 8270 4402 7463 7025 5517 8053 6137 6944 
5306 7929 6406 4676 7653 5032 3849 4444 6566 
7492 682 8212 8390 2346 5252 7561 782 3057 
3209 8482 8062 972 6133 8091 651 2990 9262 
5384 6880 9509 3169 7627 9393 5368 8256 8837 
1355 6922 2036 2986 6865 7288 8454 1873 3512 
4612 4768 1356 6119 5533 7779 4672 9257 5376 
9182 5596 5868 2881 7224 2806 3566 8136 4390 
551 3324 5811 6562 9291 9603 9407 1352 5655 
1733 6 6224 4100 1444 2144 1756 3832 1592 
8982 4930 5179 8860 5437 694 7074 2408 3115 
9425 7362 2043 4752 8278 4333 8420 1828 6519 
5783 7070 6204 7721 8862 1832 6401 7804 9691 
9368 1979 8079 8185 2871 406 5314 4103 7344 
5656 2228 7905 9787 6100 4163 4331 5569 3465 
770 5967 3000 7091 1620 3360 3775 4671 9570 
5950 4743 1097 6661 8198 8728 3644 2983 9123 
9799 2263 6117 2651 9869 5012 3991 8905 362 
9163 7269 9196 2184 3934 9419 4417 5527 6696 
2865 879 8108 757 5713 4197 2818 580 8328 
1393 5081 2973 3291 6905 1105 8048 1746 8441 
6870 9525 7742 9237 3595 6320 1902 2650 7603 
2711 7934 436 9111 9547 9107 3521 3381 4811 
8476 1775 6275 8237 4198 2860 567 4166 8666 
7530 1108 3785 5781 2128 6345 5035 1080 3814 
500 2612 7564 6612 1718 2179 7729 2893 2890 
169 1264 7201 1232 2621 3095 3319 5250 2500 
5813 3477 2746 9839 7956 1163 7836 9477 6066 
749 3946 2374 9781 7935 4018 1835 2784 7860 
3400 9489 4278 4381 7194 2029 2901 2742 1436 
3112 1482 9939 5155 6177 6127 980 1992 6148 
3541 3780 3137 9306 7964 7168 4360 2984 5505 
2375 4523 1057 4313 4038 7555 5634 5267 1742 
6482 900 131 4090 6638 6979 903 1824 9073 
3287 3044 6800 5736 8362 7221 1495 3476 5024 
7195 9174 7123 2440 4547 4869 2943 6076 5002 
569 4055 201 4428 319 3718 140 8557 9286 
3068 544 8361 9463 4867 5914 3890 2964 3484 
379 9247 2783 1884 219 6611 1036 8523 3121 
2653 3445 5896 2254 1389 3373 3700 4614 6603 
311 8691 1151 2930 6859 1027 902 9541 1428 
2277 5851 8979 1295 8481 6408 2244 2041 5818 
7539 1348 9462 874 7701 4661 4300 6743 9221 
1445 2234 1726 5824 4552 7312 9808 9813 9636 
4525 305 897 796 8953 4884 8419 653 2196 
3701 1160 4586 5210 7416 1755 2693 120 4001 
6879 9186 3856 2062 8330 8007 3893 324 4575 
1670 2172 2180 3488 4248 3231 4067 8283 3368 
2809 6147 3198 1906 5689 8890 7407 5285 5732 
4809 4179 1722 9737 3343 1896 6564 3565 3352 
8302 7378 6063 1451 5441 1260 6426 6621 6909 
1807 3275 422 2669 7975 599 7257 9167 3424 
9867 5320 53 1743 3969 4519 932 177 6789 
8743 4727 4580 3925 8275 8331 2274 8948 8143 
8785 1290 7606 7681 6027 1172 7315 7397 3596 
4437 8422 1856 2129 8970 9674 4093 728 1904 
5810 4738 966 6099 4611 1887 8959 826 6196 
9779 8949 9146 5044 159 519 9102 5391 833 
2486 9122 5862 6910 6423 7461 7088 6389 402 
6538 2295 6014 6251 4183 3099 4002 7810 1437 
6322 507 6960 3664 3105 2583 3733 890 8019 
254 4435 8304 9388 9474 4693 2042 8066 463 
1894 8889 893 4142 7772 6049 3879 2300 7858 
8560 9699 4345 7409 590 558 9785 9461 5740 
2692 434 581 1193 3773 2532 9569 8789 7232 
6340 8044 267 7871 1041 5259 9184 2199 9386 
9876 1834 7340 5248 2628 4839 6158 3888 462 
8843 5991 3148 1530 5540 10 6467 3192 9487 
6742 45 2284 5360 7251 7998 6565 1900 1871 
409 2306 9490 6480 9665 4363 2566 8477 3611 
2688 314 5733 9409 2999 7993 9678 7075 4949 
7610 981 3608 7468 7043 5126 3824 1416 4533 
3571 498 5690 4549 1941 3427 9624 6830 8647 
967 5007 2056 182 3333 8549 1661 3960 7007 
3355 6619 7069 3924 6986 7383 9015 9470 73 
8969 4548 5709 5317 3805 6304 7648 3537 7317 
9843 7154 1676 1271 147 6211 6867 7348 7196 
940 94 2290 2676 891 7350 2563 1286 405 
8226 8132 2925 1197 3187 9738 968 2339 3569 
9807 9994 1489 9356 4629 263 8314 6614 7519 
8954 8430 2475 2107 6898 1872 5484 7019 2918 
2648 5643 6997 9861 8840 7792 3714 9682 6623 
7725 6550 124 1031 1121 3616 9887 7978 6615 
9287 18 5630 3033 8466 7345 6388 7882 1078 
7243 3168 5599 7570 1958 2321 1817 2211 8118 
8172 703 3451 2633 5459 8600 6845 2336 3267 
9760 6620 1668 9153 5467 5952 4202 523 8807 
6241 2094 2325 1211 1761 4264 1868 3181 2731 
7913 8937 215 4755 1005 6087 8925 2259 5593 
5937 5985 2995 2303 3556 2609 8791 9679 9200 
1916 3811 3673 6348 9660 9885 3572 715 3362 
5254 5451 5469 6269 2217 3696 4106 5294 1349 
5198 1648 5380 3579 621 1010 2842 3065 9611 
9668 9108 5921 7176 9996 777 3876 1123 8119 
9076 6521 4069 5201 2248 6524 4280 2425 2090 
6168 6131 5237 9347 6653 1171 3763 8715 8698 
9988 209 2491 1849 6387 429 2989 5945 5311 
5029 4374 9338 54 3815 2414 3158 7033 2072 
8689 9755 9422 1129 6961 5518 7225 2736 1114 
204 7868 4085 9512 7955 7506 6863 328 153 
5312 3059 8411 7256 449 2713 9893 5600 5531 
8767 5564 1691 1136 7079 7803 1989 3125 9486 
5056 1705 4776 8652 3405 1629 1669 1125 3072 
3545 9953 4918 23 4895 9301 3266 4434 1529 
4651 948 3589 4468 7364 9294 6982 7368 163 
976 8035 5491 3869 3361 4905 4800 7355 6218 
7823 4462 295 7027 1621 2154 9676 8051 806 
312 8418 547 2786 3928 2030 4509 3383 249 
2836 5515 533 1475 7155 5266 6156 7 2125 
5121 2634 1261 4520 5701 4555 3254 4293 2857 
399 2839 2649 7102 7518 9305 7840 1893 4658 
2242 6267 7424 3559 4019 6795 8008 323 4316 
4698 8030 1952 8480 8814 7422 4886 4258 3036 
3783 3961 2654 4263 2007 1785 4330 6770 8760 
1666 5261 1412 7121 1342 1032 939 5534 1846 
2102 5009 5062 8124 9940 2914 1972 8154 47 
9396 7209 5341 4793 8033 1617 6646 1768 2384 
227 3430 6111 5820 42 2493 9519 4998 9930 
9518 1833 1652 2238 479 3334 4101 8542 4252 
6018 2581 3156 1166 6321 2150 194 3193 1788 
4741 7145 1514 4711 6254 6444 4978 3392 3159 
2197 7706 6380 6842 2976 7301 347 4215 1001 
5031 6452 2117 919 3880 5998 5438 7041 5751 
3106 2026 1720 7548 3578 9587 9045 1750 7567 
545 8232 2373 5016 4626 7916 7453 3371 2236 
1773 5232 4766 4860 1703 4476 4125 3758 4899 
3142 9744 4338 2788 2231 6415 7744 7582 6126 
4385 8659 1050 4466 5260 7347 1603 2307 3493 
259 5015 4644 3443 1409 5844 5445 2131 1912 
6902 4857 1927 5151 4665 3067 9495 2637 4663 
4028 1127 3576 9349 1189 278 1744 4480 2286 
4031 1518 9250 869 4017 384 3995 1477 4204 
9441 6325 1044 5944 8746 3426 2895 214 8398 
518 253 6640 8826 3871 986 6704 2867 286 
9280 7238 3711 6006 1963 8501 6354 753 217 
5282 6081 5436 292 3482 7900 4777 1491 4820 
5039 9784 7918 2243 3505 6569 6491 9284 7245 
2921 496 4751 3631 4212 7679 1821 8686 1533 
4289 6045 9327 6080 302 9429 4784 37 9615 
1686 2730 9482 2792 4134 5356 5059 1739 3786 
2913 8153 3385 935 2534 8705 769 3518 1213 
645 2292 2631 4438 4512 9560 2607 9341 1358 
2145 3497 766 5222 2057 1182 4876 1452 4631 
6185 3342 2379 3327 4920 8527 2063 9418 3207 
7794 2245 617 2608 3076 3614 5478 5660 6815 
4893 5772 6895 6840 5042 6942 452 2326 5504 
740 1068 3779 4724 1639 5687 8585 3129 638 
5721 2471 2106 7363 6583 3952 1401 1382 990 
1422 612 5061 5278 4925 4454 2445 3993 4827 
4904 762 4473 1551 2087 4570 779 2906 6844 
6920 7080 5582 226 4282 4128 4489 1487 1065 
401 6881 1223 3575 4485 364 3910 9456 4460 
1505 2714 3244 1938 4500 6826 8102 768 884 
7992 1 2803 3389 3298 2829 3419 1523 6375 
922 4787 8315 3261 3438 6115 2394 6329 8911 
2723 8930 8425 3598 2664 2808 7100 9942 8961 
1237 9715 1749 1576 2868 3801 675 9369 1201 
9438 1096 1784 2725 6658 2796 4511 3128 8210 
8654 4484 1552 2851 4630 1194 154 4155 114 
1130 4235 1309 2001 2104 6458 1624 4037 5431 
2071 745 408 1771 947 2635 88 6421 1330 