# vtk DataFile Version 4.2
Generated by LIGGGHTS
ASCII
DATASET POLYDATA
POINTS 21992 float
-0.00510303 -0.0713321 -0.0489131 0.00458047 -0.0700682 -0.0489619 0.00163143 -0.0631502 -0.0489972 
-0.00386355 -0.0485798 -0.0489909 0.000480578 -0.0476733 -0.0491398 0.00530494 -0.0400203 -0.0488628 
-0.0064531 0.0262333 -0.0487445 -0.00276111 0.026097 -0.048966 -0.00194715 0.0247018 -0.0485057 
-0.00155393 0.037722 -0.0491429 -0.0065738 0.0462731 -0.0486635 -0.0059874 0.0624377 -0.0488157 
-0.0191989 -0.0992048 -0.0452825 -0.013415 -0.0981702 -0.0462244 -0.00871339 -0.0981816 -0.0473366 
-0.00240261 -0.0981852 -0.0480712 0.00289516 -0.0976091 -0.0480561 0.00698658 -0.0991484 -0.0484325 
0.0100979 -0.0981843 -0.0470599 0.0128937 -0.0985247 -0.0456414 -0.0143425 -0.0944898 -0.0459769 
-0.0109214 -0.095324 -0.0468934 -0.00555805 -0.0963915 -0.047859 -0.00268495 -0.0953845 -0.0457802 
-1.04865e-05 -0.094709 -0.0481503 0.00414737 -0.0947499 -0.0461905 0.00727707 -0.0959548 -0.0475812 
-0.00768026 -0.0934601 -0.0475158 -0.00463581 -0.0923185 -0.0458947 -0.00186093 -0.091551 -0.0481077 
0.00650179 -0.0924033 -0.0476803 0.010085 -0.0922672 -0.0470618 -0.0143375 -0.0908514 -0.0459807 
-0.00821146 -0.0898492 -0.0474193 -0.00466901 -0.0891955 -0.0479238 0.00283579 -0.091172 -0.0480529 
0.00862776 -0.0889485 -0.0473984 0.0125596 -0.0890474 -0.0464871 -0.0146527 -0.0863555 -0.0458993 
-0.0115631 -0.0886205 -0.0467266 -0.00727384 -0.0863393 -0.0475798 -0.00052979 -0.087422 -0.0481712 
0.00465558 -0.0879305 -0.0479269 -0.0106408 -0.0851107 -0.0469732 -0.00371977 -0.0856852 -0.0479872 
-0.000528301 -0.083787 -0.048173 0.00310784 -0.0843144 -0.0480486 0.00745988 -0.0853199 -0.047554 
0.0132745 -0.0850055 -0.046316 -0.0144607 -0.0827226 -0.0459484 -0.00991896 -0.0815505 -0.047148 
-0.00632681 -0.0815307 -0.0477263 -0.00289459 -0.0833412 -0.0470449 0.00540125 -0.0813757 -0.0478293 
0.00981182 -0.0823197 -0.0471323 -0.0140765 -0.078835 -0.0460523 -0.0128099 -0.0809329 -0.0474391 
-0.0027551 -0.080923 -0.0480414 0.00179247 -0.0809251 -0.0480959 0.012312 -0.0797438 -0.0465451 
-0.0106588 -0.0779967 -0.0469619 -0.00465589 -0.0778309 -0.0479301 -0.000929241 -0.0774189 -0.0481653 
0.00276735 -0.0773634 -0.0480552 0.00645282 -0.077852 -0.047691 -0.0159933 -0.0751607 -0.0454015 
-0.0125246 -0.0749164 -0.0464641 -0.00772161 -0.0759263 -0.0475078 -0.00326117 -0.0742276 -0.0480134 
0.00883435 -0.075058 -0.0473658 0.0123704 -0.0752335 -0.0465349 -0.0160522 -0.0715232 -0.0453809 
-0.0123662 -0.0712855 -0.0464549 -0.00714386 -0.0723295 -0.0476055 0.000452341 -0.0732095 -0.0481325 
0.00475605 -0.0726514 -0.0479239 0.00915411 -0.0714208 -0.0472801 -0.0143811 -0.0682993 -0.0459675 
-0.00933603 -0.0694332 -0.0472355 -0.00555334 -0.068973 -0.047854 -0.00190236 -0.0704347 -0.0481072 
0.00207823 -0.0699166 -0.0480784 -0.00976842 -0.0657978 -0.0471607 -0.002642 -0.0667566 -0.0480505 
0.00133586 -0.0663537 -0.0481037 0.00542982 -0.0678374 -0.0478265 0.00902795 -0.0676627 -0.0473143 
0.00719453 -0.0656334 -0.0480745 0.012746 -0.0671774 -0.0464501 -0.0183533 -0.0650183 -0.0455933 
-0.0135231 -0.0647729 -0.0462031 -0.00616582 -0.0653286 -0.0477547 -0.000930217 -0.0635087 -0.0481622 
0.00435893 -0.0643871 -0.0474082 0.010588 -0.0642132 -0.0468688 -0.0130339 -0.061169 -0.0463311 
-0.00915294 -0.0619074 -0.0472622 -0.00421913 -0.0619739 -0.0479595 0.0038342 -0.0608446 -0.0480244 
0.00746087 -0.0624599 -0.0475618 0.012392 -0.0605274 -0.0465212 -0.0158044 -0.0589714 -0.0454713 
-0.010864 -0.0581441 -0.0469093 -0.00132853 -0.0596543 -0.0481517 0.00186722 -0.057783 -0.0480888 
-0.0137713 -0.0560323 -0.0461473 -0.00729644 -0.0578495 -0.047567 -0.00383065 -0.0568162 -0.0479725 
0.00504417 -0.0560208 -0.0478668 0.00998531 -0.0576033 -0.0471008 -0.0162632 -0.0534994 -0.0452959 
-0.0098399 -0.0544094 -0.0471563 -0.00625852 -0.054097 -0.047738 -0.00199399 -0.0536421 -0.0480962 
0.0081527 -0.0541614 -0.0474642 0.0116989 -0.0544136 -0.046685 -0.012901 -0.0524888 -0.0463614 
-0.00824707 -0.0510166 -0.047422 -0.00463257 -0.05085 -0.047923 -0.00140841 -0.0512915 -0.0462224 
0.00256615 -0.0524761 -0.0480705 0.00585808 -0.0508942 -0.0477719 0.00959767 -0.0508395 -0.0471744 
0.0131948 -0.0503452 -0.0463352 -0.0110701 -0.0487735 -0.0468514 -0.000151783 -0.0500621 -0.0481568 
0.00148322 -0.0475927 -0.0460165 0.00777226 -0.047694 -0.0475251 -0.0143017 -0.0471921 -0.046 
-0.00896658 -0.0458147 -0.0472975 -0.0055189 -0.046864 -0.0478499 -0.00179543 -0.0468203 -0.0481055 
0.00421714 -0.0462216 -0.0479815 0.0112705 -0.0472669 -0.0465579 -0.0156729 -0.0438539 -0.0455193 
-0.0121915 -0.0442909 -0.0465611 -0.00291294 -0.0433647 -0.0480262 0.000896231 -0.0443325 -0.0481217 
0.00538326 -0.0427786 -0.0478338 0.00883606 -0.0438223 -0.047354 -0.0163856 -0.040048 -0.0452608 
-0.012933 -0.0402689 -0.0463556 -0.00970602 -0.0417127 -0.0471746 -0.00612351 -0.0416826 -0.0477613 
-0.000269243 -0.0408772 -0.0481652 0.0119636 -0.0420605 -0.0466281 -0.018413 -0.0382914 -0.045576 
-0.0104776 -0.0375998 -0.0470169 -0.00690895 -0.0378972 -0.047637 -0.00349174 -0.0391871 -0.0479969 
0.00293888 -0.039172 -0.0480527 0.00625346 -0.0381925 -0.046935 0.00971935 -0.0392528 -0.0471438 
-0.0141389 -0.0368545 -0.0460318 -0.0108151 -0.0350947 -0.0458847 -0.00391315 -0.0355667 -0.0479724 
-0.000459591 -0.0371929 -0.0481669 0.00474346 -0.0350343 -0.0479184 -0.0157739 -0.033651 -0.0454893 
-0.011005 -0.0326542 -0.0468747 -0.006832 -0.0333007 -0.0476486 -0.00202871 -0.0324576 -0.0480959 
0.00126552 -0.0339933 -0.0481073 0.00993462 -0.033105 -0.0470976 -0.0135716 -0.0323174 -0.0463453 
-0.00848515 -0.0300699 -0.0473769 -0.00489321 -0.0302274 -0.0479099 0.00195033 -0.0304215 -0.0480885 
0.00556218 -0.0301287 -0.047808 0.00911655 -0.0295643 -0.0472913 0.0114076 -0.0308077 -0.0474776 
-0.0130158 -0.0294516 -0.0463351 -0.000746893 -0.0274176 -0.0481755 0.0130542 -0.0280304 -0.046368 
-0.0153835 -0.0267731 -0.0456328 -0.0102644 -0.0269166 -0.0470802 -0.00630342 -0.0252789 -0.0477173 
0.00359845 -0.0265026 -0.0479702 0.0100714 -0.0260623 -0.0470685 -0.0154783 -0.0219672 -0.045593 
-0.0128126 -0.0243225 -0.0463945 -0.00938757 -0.0233978 -0.0472231 -0.00282892 -0.0241274 -0.0480584 
0.000807436 -0.0241062 -0.0481076 0.00393133 -0.0219361 -0.0480181 0.00992712 -0.0234439 -0.0481476 
-0.0118023 -0.0207357 -0.0466653 -0.00759684 -0.0202558 -0.0475257 -0.00399121 -0.0203853 -0.0479688 
-0.000322924 -0.0206355 -0.0481591 0.0080385 -0.0216468 -0.0474814 0.0127524 -0.0213217 -0.0464442 
-0.0145317 -0.0184479 -0.0459286 -0.00933519 -0.0170798 -0.0472449 -0.00569248 -0.0171737 -0.047839 
-0.00195733 -0.017372 -0.0481084 0.00167402 -0.0172577 -0.0480951 0.00401503 -0.0174164 -0.0469434 
0.00627161 -0.0184802 -0.0477146 0.0101954 -0.0187522 -0.0469824 -0.0123968 -0.0152662 -0.0465084 
0.00489664 -0.0151208 -0.0478941 0.0085029 -0.0155579 -0.0474104 -0.0146226 -0.0123382 -0.0459052 
-0.0105249 -0.0121865 -0.0469981 -0.00741403 -0.0139846 -0.0475496 -0.00363058 -0.0133632 -0.0479895 
0.00225589 -0.0126339 -0.0480842 0.00714813 -0.0121836 -0.0476052 0.0109897 -0.0116814 -0.0468664 
-0.0123547 -0.00908314 -0.0465157 -0.00602368 -0.0106334 -0.0477772 0.00089595 -0.00916586 -0.0481132 
0.00448639 -0.00972285 -0.0479464 -0.0187832 -0.00636208 -0.0454281 -0.014376 -0.00719907 -0.0469933 
-0.00887393 -0.00842746 -0.0473158 -0.00486674 -0.00913085 -0.0459554 -0.00561674 -0.00689623 -0.0478432 
-0.00273697 -0.00910891 -0.0480457 0.00638288 -0.00662813 -0.047695 0.00956131 -0.00834043 -0.0471903 
-0.0161051 -0.00609805 -0.0453557 -0.0124497 -0.00460697 -0.0464897 -0.00854832 -0.00469584 -0.0473695 
-0.00112601 -0.00581292 -0.0481488 0.00280594 -0.00607109 -0.0480571 0.00943175 -0.00470368 -0.0472166 
0.0131674 -0.00656107 -0.0463441 -0.0154783 -0.00252304 -0.0455934 -0.00447409 -0.00344269 -0.0479425 
-0.0013737 -0.00155 -0.0481317 0.00214593 -0.00246209 -0.0480801 0.0057483 -0.00297688 -0.0477795 
0.013495 -0.00294364 -0.0462403 -0.015182 0.00109671 -0.0457028 -0.0123125 -0.000976377 -0.0465183 
-0.0088324 -0.000304138 -0.0473162 -0.00526471 0.000102989 -0.0478768 0.0033348 0.00097493 -0.0480411 
0.00972667 -0.0010789 -0.0471468 -0.0111747 0.00290095 -0.0468182 -0.00754063 0.00309071 -0.047527 
-0.00355097 0.00330543 -0.047994 -0.000157771 0.00200248 -0.0481559 0.00693105 0.00140757 -0.0476192 
0.0100516 0.00319931 -0.047067 -0.0144579 0.00464856 -0.0459481 -0.00942694 0.00618556 -0.047223 
-0.00561633 0.00629341 -0.0478549 -0.00548855 0.00445637 -0.0459973 0.00139147 0.00529481 -0.0481006 
0.00491875 0.00442579 -0.0478906 0.00796149 0.00648365 -0.0474944 -0.0152535 0.00708246 -0.0467628 
-0.0126286 0.00775222 -0.0464385 -0.00200174 0.00659467 -0.0480965 0.00426907 0.00802231 -0.047975 
0.0117795 0.00650531 -0.0466728 -0.0154642 0.00987183 -0.0455945 -0.010828 0.0108748 -0.0469147 
-0.00760464 0.00931633 -0.0475278 -0.00382356 0.00975395 -0.0479953 0.000165079 0.0107552 -0.0481493 
0.00325038 0.0103613 -0.0489669 0.00637966 0.0110767 -0.0477101 0.0106377 0.0103525 -0.0469314 
-0.0136729 0.0130031 -0.0461649 -0.0062413 0.0126829 -0.0477412 -0.0026512 0.0131941 -0.0480522 
0.00316775 0.0128162 -0.0480432 0.00798533 0.01303 -0.0485128 -0.0154261 0.0161323 -0.0456145 
-0.0100056 0.0144105 -0.0471281 -0.00489534 0.0160565 -0.0479117 0.000331036 0.0141766 -0.0462195 
0.00617199 0.0148996 -0.0477238 0.00983013 0.0148411 -0.0471321 0.0122402 0.0157496 -0.0476063 
-0.0120431 0.0173729 -0.0465964 -0.00828125 0.0176568 -0.0474244 -0.00102126 0.0174037 -0.0481586 
0.00336523 0.0174489 -0.0480321 0.00758992 0.0182545 -0.0475385 0.011156 0.0182195 -0.0468168 
-0.0141153 0.0212793 -0.0460268 -0.0105607 0.0207238 -0.0469881 -0.00700267 0.0217896 -0.0476293 
-0.00411311 0.0196073 -0.0479565 0.00116548 0.0203507 -0.0481089 0.00515397 0.020948 -0.0478543 
0.00908546 0.0216365 -0.0472963 -0.00463404 0.0245393 -0.0479313 -0.00179059 0.0223427 -0.0473652 
0.0013353 0.0240403 -0.0481106 -0.0132167 0.026007 -0.0462829 -0.00850364 0.0253672 -0.0473696 
[...]
POINT_DATA 21992
FIELD FieldData 6
id 1 21992 int
9214 14367 17155 12014 19529 21775 19179 20654 18104 
11104 11188 12110 19841 4121 69 3366 7007 16911 
158 11932 3639 6689 7129 6127 2550 7673 6150 
796 4743 1271 1567 1682 5171 2307 3158 7303 
7483 4573 2025 5980 7028 2803 7466 4214 7425 
1074 4012 2593 4550 4885 5649 4466 7874 7762 
7204 2911 19296 1760 6290 7433 2788 624 6662 
7719 5477 4240 7224 5303 5801 6301 1997 5452 
549 2163 1128 3330 2310 6305 4662 2362 2779 
6317 7451 2273 5242 2439 7764 19642 498 11682 
6224 5500 6450 2802 2883 724 2491 2501 3048 
4531 65 5271 5628 6171 6111 7541 1816 756 
5485 4762 3913 1148 6857 418 1292 4450 4845 
4487 7669 17867 5949 5841 4104 203 4979 6209 
4659 6 2935 4805 1391 4392 2 2427 4233 
321 4722 6704 2736 6477 2315 3228 4503 6732 
2210 3097 12109 7381 1637 6629 657 2944 993 
583 11584 4622 6600 4477 7307 2270 2714 3642 
601 2026 13573 4650 5080 885 2446 1303 19517 
6244 6528 5365 2569 6789 4572 3606 3814 7706 
7268 5573 1932 169 5 14886 6399 1979 2280 
5973 1694 440 5943 5991 1908 420 3198 14657 
1205 450 6240 928 2542 5779 3869 421 3510 
5529 6105 6751 6086 1540 1615 6403 20095 18044 
1789 20479 7572 3600 5775 714 2342 3125 2872 
6998 6812 2602 4282 3786 6916 2820 4166 1 
5591 7272 6005 3996 77 7188 2217 1680 7606 
1454 4107 1723 1913 6333 1423 6424 14703 4414 
2603 3340 15775 865 2185 1059 5960 5173 1940 
270 2399 870 19186 7552 6694 3567 3815 6613 
1746 17028 5547 2659 2940 6402 5539 6522 19732 
1577 743 4688 4262 4138 2290 5289 349 5916 
3485 687 6389 2476 4977 2455 5664 2965 5717 
2051 5823 5367 7166 344 1523 2281 7608 5594 
11144 124 1025 3677 6703 4149 18460 5569 1096 
391 4941 950 16243 3620 4391 1012 7070 7458 
2199 6381 6325 6263 6599 605 7766 4903 2541 
6855 4176 110 6454 21146 6218 3656 2075 2302 
2402 1434 1129 6235 2509 6500 17989 3392 5570 
5866 1082 3377 4755 7687 4674 3143 6199 4608 
8 5931 4943 109 1994 1519 6116 6884 4250 
465 3527 256 7579 990 3155 4080 18581 6053 
5177 2047 15777 588 2447 3075 3030 7327 4386 
6406 1591 1465 501 4009 7373 3636 5982 1409 
2428 488 5135 20907 5831 1287 920 7386 2084 
6124 6007 4655 5226 7001 2519 9142 1693 293 
3113 7564 3920 5843 407 6700 5937 995 935 
4540 12602 5742 6938 5707 7012 4707 1131 5397 
6198 5406 3615 7607 3109 4616 3984 3359 4960 
1419 4046 152 290 7442 3360 482 7044 1929 
6990 19342 4108 3523 5475 7210 2584 6368 6523 
14491 591 1184 888 6707 3925 541 5759 1947 
5689 6279 6306 3004 6225 7693 5378 354 7640 
6419 5824 3896 5871 472 3402 5884 7209 5954 
7181 4031 7050 6385 5710 3346 661 639 5720 
5139 1873 13769 19127 1222 6804 5885 7507 7295 
4316 5951 4447 930 18789 4613 5250 21895 3577 
18350 10623 5773 1058 2538 4438 1336 3461 67 
3319 6810 1482 6013 5788 531 3169 12863 4726 
19998 4295 2510 5629 4950 4666 3088 6680 663 
6780 3172 3950 5383 7202 1854 2114 2189 3524 
4895 1861 6318 2481 3221 7424 5936 5624 276 
19093 7464 701 6568 5420 1491 7026 6826 17075 
4311 1413 3165 3705 3003 311 2930 1970 5004 
6421 14239 4851 5623 8126 13657 4171 19027 6170 
5853 6335 689 6000 5471 20672 4690 1069 4103 
2874 4079 3177 6901 16858 4612 15828 2018 2254 
4444 7225 5240 7457 20420 3670 3312 21029 1930 
3755 542 5576 1302 14195 6591 18708 1702 4203 
7169 3126 5800 21575 9728 125 5419 4747 3557 
107 6841 5097 7358 3174 6015 3594 15964 560 
2239 5605 4998 924 1696 5409 4112 10128 10430 
5939 3574 3945 7581 5126 1444 10292 6001 4184 
8741 8744 5514 4133 4190 7570 1273 10103 18274 
6757 19759 18939 2904 337 1750 5428 777 16658 
1323 14056 2909 7743 11897 12707 1645 2831 1327 
4513 171 7264 19226 2397 416 7339 4951 6679 
3290 1468 3535 4886 4352 2693 4412 4467 2729 
1808 4033 2865 6664 5751 13052 3345 4355 4492 
6962 5275 3365 388 12599 5898 2190 740 2953 
3181 2048 17158 2793 1729 19374 1002 14478 4122 
6136 12881 5210 4281 909 2738 2380 2086 7782 
5170 7103 6726 6834 3331 1281 448 17552 11069 
3715 5148 6277 5566 4850 269 1415 21162 4055 
1488 3115 3151 2951 1420 8799 4229 7447 20018 
789 797 4583 26 480 98 442 18 226 
346 7391 7761 6641 711 3876 16405 187 194 
2676 3390 8466 4283 20 5828 5302 6423 13838 
4475 4915 15162 1014 1421 4988 1040 2532 4328 
2390 3153 1347 1203 3546 1559 6837 16108 7273 
2721 10949 456 1510 4090 7436 7489 6911 1440 
6404 1948 7120 1826 7428 4464 3387 2195 473 
2834 1157 2921 7540 2096 6624 6033 2977 1483 
4086 985 3464 1817 2577 6415 2619 3571 14681 
3522 2530 11444 9366 5929 3483 19065 12277 7032 
6692 3804 6046 3579 890 18203 2959 5247 810 
1502 1910 7701 7671 5219 4556 1668 1314 11076 
7560 5067 1974 4800 10862 4561 5399 7056 2202 
2054 7594 5661 8889 409 4072 2465 2527 3136 
5310 4488 2675 7724 40 18925 249 6055 2164 
6593 2425 10080 219 864 13398 10139 7621 13876 
5600 6050 6712 2101 5785 5886 7354 6417 5772 
7350 5197 1414 4245 726 4865 2405 13533 11937 
983 20034 2115 3971 4685 5820 16924 6313 9909 
6047 3722 4836 6066 12144 2391 3580 13329 7380 
7152 4589 5000 2131 1389 4799 6510 5338 4564 
18149 4360 2442 6952 7663 7260 3608 798 7562 
14534 892 1366 14098 9097 19455 17622 20769 7340 
4273 1898 7506 5329 1734 296 6410 2608 15251 
4293 7682 1200 3256 18970 19214 18883 1863 6589 
1876 3969 16072 11113 6740 3774 7351 4937 1609 
7035 6737 814 5802 1821 5439 6967 6330 5371 
6257 5673 18202 21778 1382 16402 4791 7317 5389 
5111 4376 1455 6506 6472 3742 7414 4486 2221 
6743 7400 4100 1209 5971 334 500 2553 4772 
14065 2775 5185 7118 2833 7639 2354 7792 1268 
14266 2711 578 6283 13327 4411 5548 2505 4465 
5436 19370 5166 595 4059 3581 6445 15610 7318 
1842 15125 6621 6684 2030 10369 4962 5125 154 
6673 1445 7702 7575 1903 6350 3279 7430 7502 
5941 2680 5560 8262 4423 3302 5222 2634 6353 
6566 4253 3680 1655 4050 4714 5286 709 7205 
5765 4862 3384 3905 1411 2284 7771 6756 3720 
5283 1767 21442 7011 2772 4535 4723 792 6734 
6511 4980 7253 247 1558 4970 7170 788 6448 
11761 3072 4698 20656 14288 5953 4605 5694 7538 
8890 2631 3242 5294 4393 6187 17964 400 11927 
11523 6130 1086 3051 5901 12012 6194 2590 7732 
16239 3684 6425 18757 2558 18815 4630 7261 1317 
7038 5761 17814 8145 8802 992 4371 16286 968 
5978 6958 4204 16452 8328 6706 8777 8137 17360 
1449 18468 6245 7588 581 7590 21804 13632 5699 
10802 2855 4676 9927 2356 15438 6886 3765 4491 
5691 1221 773 18924 5136 3382 15635 7959 4228 
2649 8718 3240 15905 7375 3371 16743 20001 21075 
5989 819 14609 3641 1000 466 11538 1335 5030 
3354 8719 1922 5318 4753 7074 3099 6760 7234 
7990 20891 4113 1829 13338 2996 3034 10344 5944 
4468 7482 4820 5232 6769 2472 751 4202 2699 
19895 3888 15286 3934 3792 11800 4287 5307 6521 
6131 4769 1993 8989 10823 7437 1211 643 3081 
2288 1758 1190 413 11114 12324 15217 1897 9976 
4889 7174 2999 427 2383 15059 6243 362 1798 
12446 3665 4151 16259 1525 2750 571 7308 8920 
9447 524 18307 9548 21360 14659 6212 12785 4472 
3455 7654 3103 1332 3907 17501 5178 9051 1103 
775 4182 7417 2032 3605 3156 426 4632 15368 
6925 2913 16112 437 1628 5858 4020 7223 10142 
18515 17903 3117 16009 6731 21183 7529 9660 18380 
10291 4130 816 4041 7415 1687 7919 15700 11495 
12182 4211 4169 2819 260 6460 3068 19267 21662 
3187 14495 6098 16585 5696 13906 4042 4914 6147 
19856 2595 1250 15586 15256 2458 6442 102 2764 
2377 7342 1191 1392 14632 6876 18144 3791 4153 
14134 3885 5889 10803 20927 1853 2487 5897 15089 
3053 2907 17233 4594 4442 2968 8223 19016 4709 
7684 2039 580 3864 6929 50 970 1795 9601 
9901 7954 3251 5060 3773 4163 1665 5204 9812 
139 4192 2197 4930 6903 10235 1197 4734 1291 
4877 8631 510 3268 15907 5844 8167 14840 3904 
6289 10207 3962 5096 6559 3534 3850 10726 16222 
214 2933 2994 11470 6434 6640 4119 17834 288 
5156 8506 16476 5128 12717 126 8119 2932 3408 
2848 12407 1552 21257 20502 228 7178 2639 2745 
5388 5545 2134 6478 6651 12872 655 17702 7936 
14047 5298 16991 18220 192 6331 5992 4187 2468 
4579 3091 8240 3212 6164 7548 5458 1324 2430 
17654 10962 10400 8492 7926 13235 3395 122 4398 
3652 2062 1588 5129 1614 5018 16754 5001 5948 
16857 2886 3055 13561 7378 4303 11599 5698 2449 
6364 5306 56 927 10912 1557 5976 4221 9350 
1248 4822 5520 1761 1112 6190 1405 6902 781 
255 6044 13939 5733 2327 1486 2710 342 4458 
921 9647 2684 1534 85 3211 3548 815 1553 
17304 21036 5203 7694 6358 2900 3999 6038 1675 
1023 3163 4306 474 5637 4648 1187 8717 2982 
1247 267 1417 4631 18670 2622 13276 162 5118 
6701 7084 3016 7676 1322 8488 1849 4910 15999 
1492 3487 3362 17822 5969 21585 4060 1249 7319 
12865 3267 19446 6872 10520 19260 754 5502 6720 
339 10238 5374 4923 6792 846 4162 4052 5549 
20397 2066 161 17406 590 2920 3719 3543 335 
9827 7613 15546 12300 6463 1886 7596 16921 4578 
891 3998 496 2363 10084 17607 2526 18946 21280 
2945 4145 6638 6814 3810 6292 762 2404 741 
3367 4929 16518 19077 20386 7598 16716 1601 1690 
2846 13167 3909 11712 453 12814 14466 4068 1206 
4120 4312 4344 18965 12260 1656 1178 14412 872 
204 4524 4390 5104 1942 18239 10752 3350 2838 
253 5654 3036 280 14884 5790 2576 7546 3435 
5266 1642 443 900 5341 1989 18655 15846 10615 
21042 19955 11959 17758 4118 6178 2225 4361 3877 
6733 5012 19028 19354 16939 7284 976 6084 5984 
3094 5445 16927 1193 11335 19902 20216 15077 5636 
3610 14664 16448 9928 1004 3727 6862 6102 12108 
13230 4255 11173 21846 9227 6459 5987 4363 4615 
6557 16073 7037 19766 3361 19908 12676 4954 4436 
530 6363 15216 9444 20617 3286 4165 16687 6396 
4251 6470 6482 7468 9557 3274 7014 18200 12757 
1039 21025 16 6281 7582 5861 5862 5768 4063 
4842 11154 694 656 855 7364 433 6553 2669 
11118 19971 9146 5120 7338 1862 5062 12853 5891 
3505 21515 13220 20301 19189 4778 21052 2366 2852 
5002 7160 4827 19731 4754 9124 12983 20235 1739 
1978 4428 7022 3489 5643 4256 10907 5749 4660 
6768 2981 2411 2617 16104 19593 7605 4374 2724 
620 4435 6302 4759 3647 5655 131 16886 1772 
6324 13476 16533 1215 2448 7343 638 2330 7528 
5736 4952 12073 6352 6748 5887 13246 2216 9667 
2566 6923 5167 906 3378 4687 7713 4495 4511 
3480 4870 4625 6502 7675 2707 7139 21429 2989 
3001 7620 4806 6012 1376 7239 4857 2299 645 
6378 7392 14001 1016 4505 3973 2495 3111 1805 
10003 60 2205 3766 2578 7252 6805 3314 7778 
5479 1067 5633 3845 4994 2938 3740 896 5008 
20374 9353 2005 7534 3708 6064 4691 1763 15297 
11202 2480 1256 2784 15240 5320 1506 6549 13974 
17242 19039 527 310 5595 4697 722 4191 18591 
11005 10160 6711 6380 21205 15458 2681 2160 16672 
7705 513 18739 4871 21149 9261 1280 18176 7186 
6237 6843 2028 1596 20276 18184 21945 7715 21034 
3453 13002 8451 1870 3206 3205 14650 7077 1073 
1667 8507 12389 5583 14102 6029 2836 4038 7292 
1586 5819 8383 3129 5473 1704 21535 8396 7577 
2511 1867 8201 5606 10445 4654 6259 6544 6034 
2000 17136 10809 13139 3272 20059 3612 9627 8742 
19949 7346 49 7578 18609 6168 19874 21481 42 
18273 7262 20458 20434 7753 7355 534 2489 2628 
18391 931 7739 12091 3007 2492 20598 5157 17699 
3798 19804 265 6093 2394 1404 5702 3372 16532 
3216 7736 17204 19657 10663 7190 165 300 7242 
820 11275 4301 13087 14334 20206 16805 3059 15773 
7597 1943 15798 6570 4249 21244 4403 15808 8960 
15282 6948 4150 14518 13594 12403 183 2166 20230 
3245 17842 21483 15237 4736 2035 5541 10610 21049 
3089 10561 14519 5441 1329 8191 11641 20862 5983 
11060 4437 7335 16644 9502 2513 16221 17954 9830 
21680 20045 12533 14411 13158 16456 9170 377 3552 
2365 2231 2774 6764 7316 19859 134 19262 10486 
20267 5669 13098 5878 15754 7183 14261 2765 7071 
959 1565 21115 15309 9348 12885 18613 9139 12974 
8845 2209 2633 6143 4592 6300 14440 12764 13734 
7744 9400 13278 18018 16037 13389 9295 7860 2133 
1900 7326 1027 4738 257 2161 12193 20775 17924 
20765 1017 12578 9980 9047 739 1396 7738 20723 
4934 3890 5261 4434 19899 2760 8516 4852 11858 
17337 7661 12545 20226 21354 367 9182 108 4702 
4368 15198 2690 21139 12450 15343 12506 13908 10171 
14953 20384 7441 4261 21917 5276 6847 934 6695 
3326 633 13299 12605 6189 10319 19855 16451 11780 
7206 1977 6913 537 19219 1828 3439 16500 8320 
17389 13548 20764 8824 10799 20304 18480 19235 6739 
13185 2022 121 6708 4327 4519 5072 5446 419 
15639 12636 13710 1228 21642 14775 1757 829 1988 
14080 10282 2791 18357 2111 10293 3304 9683 18905 
6123 1692 4116 850 2712 16034 1594 1524 10301 
15471 3338 17489 15503 21869 9534 6942 16947 2910 
2180 2143 4727 295 16340 14859 21208 8690 72 
11083 15889 15123 13277 2020 3967 1719 7699 3948 
3806 1435 10024 7367 15068 5476 17820 18944 21808 
15106 16629 18872 12005 14305 21189 17087 20323 986 
10612 17570 2454 5179 7401 3555 1549 8772 1925 
3582 10553 17713 11563 17298 11475 10554 20709 207 
18406 5192 2011 11616 3901 20481 21160 17921 12468 
20263 18634 8814 9872 8927 7115 5093 7652 3586 
6579 6919 2320 2192 18600 4649 20869 8746 10741 
18868 3838 12568 16049 2042 17438 11930 15699 20207 
9635 5068 18509 19408 20636 996 8220 1227 1728 
14241 21758 8393 17081 19736 485 14709 13104 5234 
963 907 302 5317 14653 359 12635 16492 16138 
7677 21834 19978 18178 16261 1713 3460 5421 5493 
7547 9787 9451 3660 14432 13380 511 3441 3525 
2236 5660 13800 21278 9347 9364 16339 7024 17975 
12768 10609 8748 20189 12601 640 13190 17369 13531 
5100 4001 4644 6582 17452 4581 6407 827 13731 
1123 4067 10333 14621 20909 18447 18893 13819 292 
329 10490 15394 3672 4370 191 4719 2459 2027 
6770 8649 18797 14707 15236 11879 18289 12140 14992 
8246 17679 20953 15955 2484 6282 2876 4292 14287 
516 5509 14203 11032 18213 4073 17018 18090 6374 
2720 15912 5697 2089 7670 6284 3616 4343 862 
11506 17942 458 15917 6048 3693 5021 2579 3237 
7631 15804 3056 9710 6391 10434 3972 14781 14293 
7412 381 1383 2660 3054 19332 12852 12934 5711 
5670 3736 6643 5355 159 21474 5863 2083 19943 
871 18435 1497 20760 21577 5241 3062 1375 20947 
3288 18691 18662 16030 14489 1985 11299 1879 3318 
1133 6685 6337 13686 670 17163 5230 2824 712 
6548 1104 1072 21471 20341 17317 15934 8759 17408 
14100 5946 17712 5161 18115 3110 2733 7580 7389 
16071 11757 5890 1701 15444 13520 10749 11589 4898 
14173 12728 20659 15969 15052 16185 146 858 17562 
3404 1477 7585 4639 14019 21357 5869 682 2498 
2469 14028 15451 8188 2647 2866 8079 1603 4493 
533 1848 5857 14185 2792 16102 17995 13256 16531 
10020 9913 7232 8941 8541 20140 16466 19429 17764 
720 16755 12147 4294 2148 5659 6026 16697 18076 
18642 3292 10381 16931 20714 17800 19373 3556 18311 
3771 318 2776 3253 2646 2341 19078 5510 10972 
8607 8995 7967 1754 15416 12494 16200 14885 12975 
6060 14280 19926 4599 1622 5168 9958 1165 14395 
18855 20198 10161 12848 14839 16376 20412 1513 4070 
181 6177 21335 2120 5213 11524 1484 1019 7098 
15036 5688 7511 10174 2105 11351 4981 5016 21672 
4695 11106 20228 9026 15342 15525 21742 6963 4882 
8760 4624 1936 2673 17868 7325 19158 20922 10423 
18521 6785 18209 14290 5176 15644 20897 18141 1236 
14691 18960 20648 668 5356 7365 20103 12050 5187 
9752 15406 11019 13617 3504 5394 2418 1987 630 
5695 1394 15802 12356 11117 20339 10100 16761 9947 
18942 10688 21415 17566 3975 1521 7503 3894 3572 
3836 5724 5108 20217 10407 13283 21264 19910 7141 
17201 12837 4469 6815 15921 15418 75 2856 1399 
881 1764 1252 20919 11466 13905 14225 15665 7164 
16696 11962 8134 4614 10922 8422 2591 10953 2406 
5676 4480 9 3558 14634 19619 19724 10908 1606 
10420 4737 13779 5758 6655 6087 6713 4874 6232 
10192 6010 7516 16083 16520 6051 2653 2167 2618 
10893 6966 20393 14516 21253 22000 20567 6357 21091 
1961 7517 137 2457 7394 7735 5005 11212 10133 
2735 3306 1170 16004 6750 19708 2470 10247 232 
6233 19887 15285 18810 19275 18740 9755 4284 21711 
20777 20315 552 18720 5821 21890 2226 5348 1239 
3694 105 5267 17817 13354 21949 21274 11854 17997 
4395 7027 941 3327 4913 504 2807 7079 15637 
7657 12475 19367 21599 21621 19494 15924 7078 6875 
10009 17254 5704 17352 163 8481 2751 5443 6605 
3389 1385 7134 13890 16926 13867 14450 13407 10085 
198 8367 19014 1793 9566 811 5849 6519 6738 
54 3658 7114 16251 7757 10997 16842 5278 15098 
7203 17719 6142 5025 5372 5326 6914 7868 8728 
4124 9793 770 4730 5686 18667 7492 17110 6139 
4406 3741 3060 539 1003 5799 6766 6375 2726 
15208 12762 13107 4385 6867 3564 1912 5115 5753 
4459 86 570 8378 21134 7315 18993 14271 4924 
3348 1895 2344 4729 6774 3120 2841 3394 4433 
566 6179 23 6186 3955 7247 6414 4139 374 
3296 653 713 6019 11271 1452 7060 1447 4815 
2800 4317 12106 16766 1308 7008 3931 6462 384 
6077 2849 1362 13401 2012 6265 7508 1388 2656 
15488 626 1695 5805 20693 5398 7634 5205 7576 
4110 16257 2222 8376 1636 21041 999 5865 4946 
7322 20943 9265 8822 2174 14370 4315 611 10699 
19510 6830 8052 11825 18481 5840 5220 6575 4782 
6975 17223 1471 6828 18170 3032 20875 5028 7844 
5358 12530 20741 20903 2992 4159 2811 8292 707 
10577 16741 8882 21654 20939 12535 11304 17694 18134 
9652 19919 3537 14797 2815 3544 6541 1648 12227 
12194 7680 20673 15965 20508 17468 3614 11515 16627 
3751 11857 5993 5461 2137 4760 3411 4024 12350 
16075 10073 9419 16123 14163 20482 4157 12634 9316 
6672 7023 11951 6863 1220 7566 17177 19600 21539 
11618 19387 19559 14574 9734 18166 16787 13213 17766 
4095 20356 19792 5850 2875 1199 5063 17026 7720 
16412 17251 12479 18688 18885 18403 16573 15647 17149 
20552 18051 18753 15126 5076 20050 21580 16764 1442 
4802 2644 520 17004 16051 4239 8469 9247 14794 
20308 19686 21315 1590 2887 8368 17725 9435 6106 
9932 2823 10559 9079 1888 3578 7655 11490 20517 
6439 16370 21408 12229 3284 13423 20516 10546 9867 
13783 10427 20242 19277 19211 12474 17341 6122 11265 
11095 13358 592 3052 17280 449 2253 17309 7175 
15906 16425 13841 18874 12483 825 16171 18850 15888 
10449 15833 16344 11890 15140 7797 8962 15764 13960 
10389 13878 6622 6222 16427 7072 14376 4271 14595 
6556 13780 17034 8836 8716 17952 21348 18303 18854 
13066 20074 21237 7689 3477 10785 14687 2337 178 
7645 13302 4188 13519 3323 2589 11752 9699 17816 
12662 2172 8708 13336 20116 8513 9376 21462 20691 
11630 10044 18177 15902 5618 2627 6535 182 10700 
5706 378 4007 14971 7211 19171 9322 18343 16908 
14960 12035 9839 9577 16343 11225 16826 10288 15858 
283 5323 7604 15207 5440 18587 17951 17293 13342 
12457 8900 17367 18008 5254 18665 16657 17359 11667 
12500 14115 19445 1644 696 11850 18080 7123 18212 
3663 18174 6103 7622 1339 10855 16568 18704 19789 
15780 16548 21098 9999 10874 21390 16214 4288 10182 
17737 8084 20868 10256 15044 15992 21923 7870 10501 
1213 8823 5498 2452 4076 319 4588 18088 13292 
14104 4715 21797 14044 18495 19449 17845 10540 9457 
15602 13403 12917 16462 12293 1188 14568 19346 8406 
278 1306 2349 19637 2854 10551 1807 11247 2507 
2050 16334 15718 16750 13549 12096 9912 8296 19341 
11448 17126 13365 20523 20532 21499 18671 20630 16704 
12171 14368 5293 4000 7119 2271 7003 5162 20937 
18091 5424 13948 20449 15191 16496 14441 8360 19599 
14729 8483 10441 20835 18502 19320 3467 18348 10929 
13738 1279 11416 17463 11944 6071 4350 602 4890 
18417 20744 16159 21130 9568 12952 12695 19719 10223 
10302 9294 10966 17969 10640 21617 17722 12581 16265 
18672 21178 17173 20364 9035 18264 4377 17671 18030 
5144 1670 17431 9749 10627 7760 11957 10920 21630 
18096 20439 966 8106 11244 17047 14579 13776 2049 
9685 16454 12755 17263 18039 19258 10979 1919 9008 
4279 6964 7525 6980 3784 18758 9126 20324 11242 
12081 19964 18429 8834 15738 18295 15819 15107 18685 
19973 10426 19644 10489 4296 17308 4057 2946 7481 
15783 10524 9467 8531 10695 20960 12436 8667 14814 
20077 3492 5364 20055 20391 19790 17435 9193 13818 
17936 13112 10040 14922 8319 17930 15399 9003 5497 
4855 5997 553 224 5592 4863 14220 225 21683 
20194 13247 4646 16981 21766 14302 21500 13842 9519 
8441 1794 18284 3226 6592 3949 10410 1450 5616 
9995 1515 9100 11293 16375 19892 8560 14593 10633 
16300 14811 10072 16978 17978 8569 13558 15903 5914 
2768 7163 6596 8931 4922 15287 14337 7940 14291 
16923 9570 20849 18918 21290 15687 3918 15269 2328 
18173 14899 13623 13568 11052 8876 20565 14877 2122 
1356 3517 904 5334 2873 3497 12667 1443 14138 
19472 15823 8050 9661 4362 14548 14420 16218 9581 
21192 13934 13571 19274 6204 7989 8263 8498 15695 
11393 8992 17218 7235 3457 1076 8105 6394 10902 
20825 16341 17053 20946 15919 17780 8676 8522 9283 
8813 8994 19042 17103 18798 10311 21057 9960 8617 
20614 8447 16894 16373 17379 11471 17888 20551 20192 