# vtk DataFile Version 4.2
Generated by LIGGGHTS
ASCII
DATASET POLYDATA
POINTS 10000 float
-0.0178305 0.000894416 -0.0370331 -0.018982 0.003775 -0.0364615 -0.0190726 0.00717247 -0.0364077 
-0.0183914 0.0088207 -0.0367558 -0.0191181 0.0131195 -0.036384 -0.0183577 0.0147228 -0.0367804 
-0.0178736 0.0173636 -0.0370146 -0.0182551 0.019125 -0.0368257 -0.0209924 0.000898341 -0.0353342 
-0.01943 0.000896292 -0.0362232 -0.0178309 0.00256103 -0.0358125 -0.0203526 0.00288535 -0.0357066 
-0.0202978 0.00477222 -0.0357483 -0.0186515 0.00545903 -0.0359278 -0.0202644 0.00649641 -0.0352465 
-0.0212463 0.00803155 -0.0351834 -0.0194005 0.0102107 -0.0362349 -0.0203229 0.0116642 -0.0357294 
-0.0180883 0.0118846 -0.035577 -0.0211276 0.0141793 -0.0352614 -0.0193669 0.014542 -0.0353104 
-0.0193962 0.0160841 -0.0362345 -0.0180746 0.0171097 -0.0352465 -0.0194067 0.0178799 -0.0362305 
-0.0204683 0.0192025 -0.0356447 -0.0230671 0.000903057 -0.0340194 -0.0179801 0.000895656 -0.035161 
-0.0219802 0.00227433 -0.0347318 -0.0195036 0.00171322 -0.0346337 -0.0180381 0.00257087 -0.0340305 
-0.0234015 0.00330503 -0.0337883 -0.0191115 0.00386233 -0.0346765 -0.0225434 0.00478812 -0.0343661 
-0.020804 0.00516465 -0.034081 -0.0179529 0.00516634 -0.034261 -0.0219297 0.00648472 -0.0345729 
-0.0184563 0.00681847 -0.0347512 -0.022765 0.00805806 -0.0342212 -0.0179514 0.00854152 -0.0350332 
-0.0219112 0.00967699 -0.0347776 -0.0197278 0.00898425 -0.0349643 -0.0231218 0.0107376 -0.0339804 
-0.0191327 0.0108328 -0.0345684 -0.0218229 0.0120868 -0.034838 -0.0199512 0.013005 -0.0345965 
-0.0181876 0.0133911 -0.0346004 -0.0226272 0.0138758 -0.0343174 -0.0199922 0.0159253 -0.0343442 
-0.0182348 0.0155606 -0.03436 -0.0231355 0.0161573 -0.033974 -0.0216346 0.0163437 -0.0349459 
-0.0203956 0.017634 -0.0347497 -0.0219167 0.0185947 -0.034769 -0.0187414 0.0191761 -0.0351003 
-0.0245329 0.000897963 -0.0329835 -0.0214382 0.00126124 -0.0333461 -0.0197025 0.000895344 -0.0330512 
-0.0179336 0.00089806 -0.0333661 -0.0248292 0.00294638 -0.0327557 -0.0216427 0.00350824 -0.0334735 
-0.0199462 0.00292752 -0.0333949 -0.0175183 0.00394077 -0.0329873 -0.0243095 0.00471364 -0.0331366 
-0.019209 0.00467672 -0.0330831 -0.0251474 0.00639513 -0.0325144 -0.0234922 0.006206 -0.033731 
-0.0210445 0.0064031 -0.0328029 -0.0201071 0.00762381 -0.0338552 -0.0242248 0.00777476 -0.0332084 
-0.0213799 0.00878061 -0.0333184 -0.018411 0.00799106 -0.0333912 -0.0248316 0.00954288 -0.0327492 
-0.0230618 0.00927682 -0.0329333 -0.0199396 0.00984932 -0.0333051 -0.0181528 0.00976353 -0.0335046 
-0.0213844 0.0109119 -0.0335538 -0.02513 0.0113027 -0.0325286 -0.0235436 0.0124607 -0.0336903 
-0.0198397 0.0118318 -0.0332489 -0.0212869 0.012924 -0.0333549 -0.0182023 0.0125826 -0.033002 
-0.0242419 0.0141154 -0.033189 -0.0210182 0.014688 -0.0335447 -0.0192627 0.0143414 -0.0335285 
-0.0226487 0.0148677 -0.032827 -0.0215474 0.0162834 -0.0329317 -0.0188226 0.0170894 -0.0336078 
-0.0242599 0.017338 -0.0331867 -0.0225137 0.0177543 -0.0332731 -0.0203999 0.017664 -0.0329526 
-0.0248785 0.0189567 -0.0327037 -0.0234459 0.0192052 -0.0337625 -0.02161 0.0192013 -0.0327023 
-0.0202467 0.0192041 -0.0338658 -0.0185381 0.0192081 -0.0333188 -0.0223332 0.000898245 -0.0315074 
-0.0261875 0.00248029 -0.0316809 -0.0232781 0.00208321 -0.0324735 -0.0211973 0.00249395 -0.032055 
-0.0182703 0.00247262 -0.032254 -0.0225458 0.00367761 -0.0319296 -0.0196714 0.00345739 -0.031706 
-0.0257741 0.00478756 -0.0320177 -0.0242391 0.00404437 -0.0314614 -0.0208453 0.00467342 -0.0323638 
-0.0224888 0.00537943 -0.0324959 -0.017865 0.00554718 -0.0322659 -0.0265391 0.00652329 -0.0313811 
-0.0226517 0.00717135 -0.0324711 -0.0192645 0.00660786 -0.0326338 -0.0257647 0.00811624 -0.032034 
-0.0239199 0.00846172 -0.0315825 -0.020384 0.00791613 -0.0321064 -0.0214847 0.010004 -0.0320086 
-0.018918 0.00901276 -0.032005 -0.0263895 0.0105673 -0.0314864 -0.0232826 0.0109167 -0.0322028 
-0.019235 0.0107747 -0.0319368 -0.0216034 0.0117953 -0.0319982 -0.0260502 0.0126614 -0.0317965 
-0.0241697 0.0127357 -0.0320294 -0.0224918 0.0133555 -0.031881 -0.0205104 0.0135917 -0.0318873 
-0.0259372 0.0146126 -0.0318859 -0.0187203 0.0138868 -0.0318784 -0.0201189 0.0153323 -0.032083 
-0.0184129 0.0156066 -0.0325758 -0.0248886 0.0160959 -0.0320529 -0.0231262 0.0164374 -0.0320975 
-0.0258892 0.0175826 -0.0319266 -0.0241644 0.0177423 -0.0314453 -0.0220698 0.0179264 -0.0315224 
-0.0189112 0.0180403 -0.0320207 -0.0232518 0.0192001 -0.0319783 -0.026841 0.000898865 -0.0311395 
-0.0242001 0.000898249 -0.0312275 -0.0205369 0.000929252 -0.031464 -0.0187396 0.000898633 -0.0315246 
-0.0277812 0.00218111 -0.0302876 -0.0241028 0.00253699 -0.0305042 -0.0222845 0.00246481 -0.0306212 
-0.0202851 0.0023676 -0.030418 -0.0184899 0.00240349 -0.0304741 -0.0270242 0.00390189 -0.0309708 
-0.021147 0.00389936 -0.0307854 -0.0279562 0.00521583 -0.030137 -0.0227843 0.00446746 -0.0303322 
-0.0188421 0.00484884 -0.0309336 -0.0254617 0.005479 -0.0303906 -0.0237159 0.00574582 -0.0312366 
-0.0219703 0.00597371 -0.0308856 -0.0202206 0.00594829 -0.0312667 -0.0176808 0.00633231 -0.0306257 
-0.0277715 0.00725996 -0.0302964 -0.0248492 0.00709087 -0.0308897 -0.0231266 0.00726262 -0.0304268 
-0.0208176 0.00754697 -0.0304097 -0.0189956 0.00750266 -0.0310432 -0.0270378 0.00876663 -0.0309547 
-0.022139 0.00847036 -0.0313421 -0.0253459 0.0093158 -0.0307363 -0.0208414 0.00934805 -0.0304639 
-0.0277538 0.0103822 -0.0303253 -0.0245066 0.0109047 -0.0308886 -0.0227139 0.0101095 -0.030702 
-0.0205208 0.0111147 -0.0307378 -0.0180382 0.0102835 -0.0306913 -0.0277769 0.0121802 -0.0302936 
-0.0230303 0.0120232 -0.0308108 -0.0183898 0.0122175 -0.031261 -0.0262249 0.0130561 -0.0300604 
-0.0214202 0.0128255 -0.0305393 -0.0196552 0.0131327 -0.0303785 -0.0276696 0.0141061 -0.0303983 
-0.0260498 0.014841 -0.0301078 -0.024245 0.0143872 -0.0313232 -0.0209058 0.0147116 -0.0305421 
-0.0191167 0.0148469 -0.0304143 -0.024571 0.0158364 -0.030305 -0.0226064 0.0150784 -0.0310501 
-0.0266514 0.0161204 -0.0312186 -0.0230386 0.0168029 -0.0303455 -0.0212708 0.0163594 -0.0311573 
-0.0190897 0.0164787 -0.0311582 -0.0174524 0.0172341 -0.0313504 -0.0265836 0.0176644 -0.0302719 
-0.0196123 0.0180084 -0.0303744 -0.0274686 0.0192006 -0.0305741 -0.0257747 0.0192039 -0.0311659 
-0.0241415 0.0192082 -0.0304202 -0.0207893 0.0191934 -0.031104 -0.0183296 0.0192024 -0.030779 
-0.0288668 0.000936935 -0.0292592 -0.0268612 0.000895992 -0.0293551 -0.0251011 0.000893097 -0.0296797 
-0.0231088 0.000894633 -0.0298096 -0.0213182 0.000892422 -0.0298485 -0.0194005 0.000907833 -0.0298514 
-0.0291554 0.00276021 -0.0289712 -0.0260767 0.00260488 -0.0298942 -0.0248471 0.00395251 -0.0296784 
-0.0196758 0.00388367 -0.0296647 -0.0293363 0.00454022 -0.0287881 -0.0265312 0.00447126 -0.0293449 
-0.0265348 0.00631189 -0.0292211 -0.0239341 0.00569414 -0.0294543 -0.0208498 0.0052504 -0.0296321 
-0.0182809 0.00529688 -0.0292928 -0.0293466 0.0074657 -0.0287736 -0.0244177 0.00741234 -0.0291814 
-0.0218843 0.00668895 -0.0292461 -0.0195609 0.00649515 -0.029676 -0.0279974 0.00883636 -0.0294468 
-0.0262831 0.00807462 -0.0294756 -0.0221229 0.00846652 -0.0295476 -0.0179278 0.00776015 -0.0295669 
-0.0238188 0.00896468 -0.0298668 -0.019127 0.00900023 -0.0300608 -0.0248942 0.0102869 -0.0292479 
-0.021536 0.0104364 -0.0292171 -0.0293092 0.0116104 -0.0288127 -0.0262716 0.011275 -0.0298425 
-0.0245447 0.012432 -0.0299325 -0.0227675 0.0117369 -0.0290617 -0.0206184 0.011982 -0.0291749 
-0.0190013 0.0114702 -0.0297529 -0.0286055 0.0132428 -0.0291023 -0.0231336 0.0136646 -0.0300792 
-0.0215744 0.0138924 -0.0290911 -0.0175053 0.0142975 -0.0298437 -0.0289017 0.0150122 -0.0292271 
-0.027449 0.015993 -0.0296139 -0.022016 0.0155964 -0.0294394 -0.0257957 0.016169 -0.0289299 
-0.0201696 0.0162515 -0.0297391 -0.0174142 0.0160913 -0.0299233 -0.0285406 0.0174228 -0.029577 
-0.0248543 0.0175367 -0.0298005 -0.0213047 0.0176407 -0.0298999 -0.0179647 0.017785 -0.0296924 
-0.0286464 0.0191823 -0.0292203 -0.0260397 0.019174 -0.029386 -0.022354 0.0191842 -0.030218 
-0.0206361 0.0192015 -0.0293139 -0.0300551 0.00150914 -0.0280343 -0.0277855 0.000903074 -0.0278239 
-0.0259571 0.000897075 -0.0278126 -0.0238613 0.000911814 -0.0281816 -0.0220611 0.000898291 -0.0282097 
-0.0179362 0.00149652 -0.0289814 -0.0272482 0.00245789 -0.0285432 -0.0246641 0.00239326 -0.0288067 
-0.0207305 0.002129 -0.0286973 -0.0191032 0.00249431 -0.0280502 -0.0303308 0.00333338 -0.0277366 
-0.0278677 0.00401453 -0.0278979 -0.02585 0.00348573 -0.0280078 -0.0232959 0.00354528 -0.0288854 
-0.021521 0.0036932 -0.0290497 -0.0176822 0.00341679 -0.0292313 -0.0265017 0.00515983 -0.0276876 
-0.024534 0.00471029 -0.028073 -0.0224745 0.0051306 -0.0285718 -0.0280372 0.00572914 -0.0284232 
-0.0251661 0.00638681 -0.027915 -0.0197755 0.00554017 -0.028173 -0.0304804 0.00669657 -0.0275709 
-0.0275957 0.00747023 -0.028356 -0.0187652 0.00702859 -0.0281571 -0.0251361 0.00879072 -0.0282828 
-0.0233632 0.00835134 -0.0280674 -0.020441 0.00846446 -0.0289186 -0.0294567 0.00926867 -0.028506 
-0.0268971 0.00909717 -0.0280483 -0.0231774 0.0100525 -0.0285999 -0.0217649 0.00916743 -0.0279353 
-0.0179752 0.00985438 -0.0289489 -0.0303582 0.0105985 -0.0277125 -0.0279417 0.0104718 -0.0285478 
-0.0262201 0.0107616 -0.0281208 -0.0198014 0.0101418 -0.0288511 -0.0304813 0.012423 -0.0275822 
-0.0271127 0.0122863 -0.0286228 -0.0251888 0.0122336 -0.0281265 -0.02368 0.0131558 -0.0284472 
-0.0217007 0.0125737 -0.0278823 -0.018544 0.0130216 -0.0289761 -0.029844 0.01403 -0.0280591 
-0.0270387 0.0142503 -0.0287288 -0.0252813 0.0138962 -0.0287911 -0.0199853 0.0146979 -0.0288509 
-0.018287 0.0146488 -0.0282647 -0.0281646 0.0150617 -0.0275936 -0.0238311 0.0149528 -0.0289266 
-0.0210406 0.0158434 -0.0279566 -0.0296239 0.0164847 -0.0284909 -0.0228969 0.0162204 -0.0280042 
-0.0187032 0.0163521 -0.0287018 -0.0287652 0.0179372 -0.0278687 -0.0270604 0.0174094 -0.0285601 
-0.0251992 0.0176055 -0.028038 -0.0232697 0.0178224 -0.0288898 -0.0216647 0.0175167 -0.0281457 
[...]
POINT_DATA 10000
FIELD FieldData 7
id 1 10000 int
6520 5122 6479 7723 1088 5765 8550 3909 2987 
7939 8723 2358 9766 6386 5127 5149 9343 6511 
75 8203 8043 9459 5500 1026 8776 392 8021 
5025 6502 9297 9852 9906 9948 9110 7146 8786 
9977 9036 3305 3197 190 5532 1549 5022 8583 
9584 6235 6440 7335 3196 8268 4916 6809 6201 
5103 5509 7186 490 5116 3204 8871 5333 7764 
1158 8577 9937 3954 8916 5847 8252 561 7694 
363 4420 193 2171 7485 9246 5597 6072 8829 
2768 4866 952 6264 1241 3941 5051 287 1819 
3213 9941 6781 2356 4453 9968 6411 1329 2112 
3257 2917 849 9245 5055 9629 7986 2459 5705 
9987 4250 6437 9602 2237 690 5819 2101 7620 
79 979 7824 7093 361 4286 508 1537 9256 
9859 2387 6394 9597 565 4692 4475 4639 9693 
504 877 4700 2567 4763 9758 4396 3433 2907 
7743 9542 7169 4228 9736 825 2717 7268 2323 
9199 9572 7151 9621 7710 7153 417 7586 1485 
7771 9795 3515 3944 2889 9545 4595 6079 7460 
424 1678 8965 9458 2934 9627 1944 4994 5935 
6409 822 9830 6047 1391 9376 4802 5873 1118 
7021 3117 3782 4271 2910 1008 2207 8029 6216 
4207 6289 3376 4709 9500 7811 1126 3939 1091 
2720 4788 5861 9578 5968 7897 4439 8974 2832 
9426 341 1095 3795 9550 9765 4786 5168 3554 
1983 6681 1478 2556 5943 4078 9544 9171 997 
3612 4029 5189 6206 3274 387 1063 8074 4588 
4052 1086 6760 8297 4615 473 3313 8410 9871 
6203 6993 1791 5274 224 7736 6460 483 9923 
7483 2938 9198 4772 8598 9913 3912 1466 3016 
4856 7394 9281 7310 8846 437 6869 8451 6280 
8808 2193 9815 9694 2075 1593 2762 2009 7111 
7512 345 9455 1134 3439 9886 8612 9316 9673 
4740 24 5769 9671 8099 9984 700 9774 4399 
9726 4231 8772 3473 609 8095 9332 7376 9705 
2141 189 1532 3255 9903 4764 6046 6240 654 
9623 2023 2003 7177 3395 2798 5795 2571 9551 
1179 2678 3190 655 991 8225 8034 9851 8845 
321 778 9229 8773 4748 758 9639 3704 7082 
9348 8947 8913 3188 2136 1994 3675 101 2721 
3609 9085 4720 1483 7094 7579 9947 6097 8006 
4347 841 1734 1258 3123 1369 2966 5310 3262 
2869 2575 1840 9135 123 8637 2192 1049 17 
1829 7669 2220 7326 9086 7552 3329 5741 9069 
1341 5707 8821 9757 8211 889 3462 1252 2216 
7371 260 6096 1497 1306 1700 344 9703 157 
6660 6505 5450 3904 6317 7202 7272 1820 6517 
2998 9176 3093 9701 9363 650 7808 9520 9538 
8219 3694 6256 4111 915 5889 7799 5953 846 
4455 2854 8852 9034 7832 8123 9384 6501 1709 
6835 6031 7958 8873 8621 484 7828 3478 8964 
8967 946 5539 7660 4781 2604 9488 4524 9580 
8158 1844 6992 798 2170 5474 3447 4576 3686 
6012 3132 9910 5230 9485 3693 9652 6683 5147 
4242 5429 3600 1793 5389 327 528 3235 1914 
5672 105 9637 3767 5661 1413 6727 3978 1019 
9032 2450 4143 830 9782 4433 309 3365 9846 
9656 677 4206 7230 9716 2039 2959 3171 6369 
9389 3091 2622 9966 6273 8310 3792 6145 2081 
5321 1279 4817 7237 5879 594 3152 4900 3290 
6038 2233 1102 2383 661 691 635 9208 1569 
2123 6630 7628 8184 7973 4967 3838 3379 5351 
349 3062 451 1030 6299 6529 7796 3481 2258 
175 3915 9214 9400 1707 7780 139 851 1701 
9788 7997 1113 9450 7522 9644 714 9933 1181 
4733 1957 7807 5413 5620 5057 8405 7381 9836 
335 8817 3651 1531 3503 3891 8536 7455 2288 
4073 108 3580 1430 6747 7035 7822 6726 9702 
9502 3994 414 8781 6908 878 1457 5454 3540 
2186 7704 8866 1404 2157 6833 7698 7812 2994 
5352 8804 7282 6124 5976 6023 4026 7063 1164 
9789 3997 8897 5264 9242 5870 9557 4221 7930 
2642 2724 5695 351 6332 7408 5777 2982 9934 
6899 442 68 9469 7135 9862 5010 3420 5671 
8665 3467 6719 8395 6405 9838 1875 7417 4826 
8167 3573 5246 3292 1257 3536 2203 907 971 
9023 106 2958 4851 7360 5408 1012 8989 5327 
6446 3074 1162 6539 2433 3613 5348 7507 4656 
1266 3098 5099 4892 7699 6984 3480 7830 1555 
7716 6486 3413 9065 9282 1764 721 467 1852 
9915 1187 2257 7980 4009 2241 4283 9209 8590 
6819 238 6732 3070 4364 5965 8881 9873 8765 
6268 7573 9243 1333 9170 3918 5658 5223 9055 
5069 5423 8421 21 5458 6471 4072 3060 4938 
377 4739 7248 732 5830 7682 2489 9546 1230 
7637 4 6860 8093 6866 4336 4087 6785 933 
7885 4387 886 5136 115 8828 4645 438 6868 
8152 1040 9116 3864 4628 360 8438 5750 7119 
9908 9405 5840 6650 4503 7157 6628 9960 9460 
7309 4964 7678 5814 1245 7814 9371 4015 4272 
8427 6584 3100 3309 1373 2749 6645 9898 9579 
333 8163 6098 6210 8756 818 4691 9974 7599 
4943 6078 5434 2367 8719 5845 7623 9586 7260 
3441 9410 7359 6197 2363 9863 5779 6260 8561 
1314 5466 8867 1754 8783 1519 9022 2827 7124 
6762 1249 5400 6514 4515 3968 1665 2790 423 
5453 6907 7576 4783 3421 3658 6551 4816 9440 
9631 9439 8382 8286 1714 197 1716 6963 3015 
7675 8075 320 3842 1014 3800 6775 2209 9687 
2701 529 6438 6778 7456 8057 917 4023 5654 
1512 2596 7638 6338 4034 6051 9006 6791 52 
2898 6035 7324 5822 5482 5475 7278 261 3151 
8406 6794 8000 4043 7737 6239 2310 9404 4953 
212 9914 4014 1869 291 3366 8492 7855 6296 
987 7693 8471 8349 6522 4582 5927 7894 2478 
237 3179 137 1757 7170 6829 7182 4590 7475 
5216 9842 6450 1783 2821 5815 973 6533 5307 
6463 7164 7593 303 382 1611 2048 1919 2035 
3930 6144 4807 3219 6970 1974 4934 5417 6088 
2521 8224 3514 6138 5673 3896 6279 8412 9203 
1426 9017 5087 9264 9444 3741 6497 3508 7325 
5178 7386 6161 2267 726 7337 1509 9315 8713 
1839 180 5920 3232 4459 7431 4431 6441 236 
6999 8128 6430 2099 9239 5665 390 4546 9856 
9857 604 9747 77 3238 5480 3347 6985 8529 
835 9532 6793 9600 9659 2735 9359 8250 2542 
4024 1240 6553 1702 5416 4445 7029 9853 4449 
2826 2902 3929 5546 9776 6802 7171 2603 7709 
4397 6039 3761 7096 6379 1728 4296 3917 7498 
2371 6567 8950 5850 5334 8464 3885 2722 8 
1949 9115 2537 2661 1242 1137 289 9255 4714 
3754 4343 5575 5156 134 8189 5134 2213 4365 
9248 9345 6107 6370 6748 3077 4643 1732 9321 
9114 9007 158 5276 1361 9403 7207 2878 7661 
7236 942 7105 6616 6876 513 8234 8183 8323 
5060 9261 9827 1253 2960 7703 9976 2108 961 
6759 7285 7254 2059 6674 9696 3809 7189 1681 
6871 9951 5193 7068 925 3119 6346 9559 9148 
9522 2452 4778 7544 815 5801 4249 2064 7445 
8671 8485 4729 3011 11 1616 4819 8216 3510 
8592 7084 5420 2449 4604 301 8725 5297 388 
669 4196 2733 2444 592 5142 3039 5427 9276 
3043 3574 9131 765 9251 541 6626 8352 7158 
5158 2485 1988 5424 5296 5291 8347 3755 6095 
6303 8498 1850 7156 2164 8570 5871 8032 9012 
8810 3224 9000 8181 6627 5907 9217 5139 9638 
927 7717 8414 7528 5638 1037 8332 8520 8238 
6112 9633 7907 8290 4095 9653 1777 9415 3320 
9083 6576 7441 1695 6490 4981 85 2423 8324 
3894 8449 9943 9561 8016 3460 7927 7960 4224 
8824 1387 9179 8587 380 7861 369 8147 1853 
9759 1866 5800 8229 91 8877 9056 2799 4348 
9387 7040 9288 8812 4945 9911 3511 2940 1959 
3082 3749 7379 7133 3149 639 5631 6654 1456 
8230 8762 2706 9225 685 9320 3667 2576 6701 
4975 1657 9378 3666 4273 4972 1559 6702 7970 
8082 8112 6062 4988 8345 9398 920 2008 4940 
2077 2152 1116 7259 8486 2377 1759 7806 9907 
2817 1076 3432 2178 739 8442 9583 7508 5072 
2577 6577 8932 1796 2113 9383 1367 634 4815 
9278 880 4312 3529 2828 3727 269 3479 626 
829 8311 2680 3684 2980 7647 9958 9786 4824 
9711 5503 1898 693 6756 5693 4112 4013 6689 
8532 3787 290 6398 3919 7020 8343 2953 8063 
7500 3146 4717 3677 9791 1263 1558 250 7526 
168 453 5036 4754 4995 873 8552 2778 3038 
5791 2538 3765 7072 3442 5602 7588 2718 7005 
7626 5309 2961 7649 2332 4951 6362 3728 7941 
1448 8972 20 6319 5559 7104 1196 7031 9064 
7239 5243 5821 7845 229 8207 3901 4600 1365 
4664 3660 2879 1550 5402 5115 7277 643 5428 
8277 3655 8617 9840 7217 6823 4887 1117 8605 
8851 356 9844 1787 6253 4742 4113 6391 6276 
9467 415 3830 4622 4613 2658 1180 5931 2523 
4209 8701 3963 4357 2473 3661 2782 7302 9825 
1615 8521 2088 5891 3627 7361 4534 7784 5784 
8320 9837 7210 239 2139 6573 6593 3186 8257 
5883 4326 5794 2756 6419 7609 480 7505 4141 
9832 8397 203 647 9449 5963 3180 8027 4288 
1546 7618 9835 7587 7052 6142 8869 3602 3680 
6190 5757 9748 9995 4912 7654 2285 2752 8083 
1567 1536 2812 8936 6166 534 1646 8958 1698 
801 823 6757 3012 864 8636 5379 2347 2348 
9875 3905 8996 9574 7305 8711 1161 4021 7212 
6873 7892 8004 5662 3354 704 2202 3878 5543 
4383 3348 8579 3982 9346 9590 2951 3692 4436 
701 6173 4354 9121 5397 7318 1570 7252 5426 
4561 6278 493 1112 8771 7994 7910 2670 3356 
3114 9142 4538 4935 3908 2877 3017 5908 9187 
3145 2482 2122 1799 5034 6141 3370 4317 5435 
3127 1953 6610 5283 8433 8899 6634 7375 5633 
4702 7865 6493 9804 7719 5359 9397 7879 7891 
6146 9539 6356 978 6140 1769 2517 2390 3296 
9479 595 3134 2928 410 5848 5590 9098 1713 
4091 623 3135 7267 3175 9927 9595 1009 7886 
9922 9234 7050 330 1474 8874 8445 90 4088 
4859 5479 6374 9751 5140 2555 1543 136 1825 
1376 3911 9508 5186 5443 827 3732 9454 5196 
8364 36 652 8632 9681 9965 2700 2529 6641 
3729 6602 4573 3825 587 7086 4356 4261 860 
5849 8186 4133 95 5577 4990 2328 8514 3178 
5904 3863 9981 9606 7055 8779 6011 5129 1930 
7222 7547 3157 7569 5464 2911 9466 9319 8684 
5506 2344 187 2681 1758 1697 2656 5912 7881 
65 2215 6287 6395 9582 9265 6605 284 4054 
1417 3735 6928 6792 5394 6093 9647 5299 2269 
1384 491 1571 456 7444 30 6424 3136 2083 
7479 4497 4640 6110 5520 6121 5096 9967 8685 
7214 7856 5960 628 4668 2188 722 4151 9318 
8243 4352 7575 7571 606 6468 6357 6541 6116 
4404 1915 3078 6753 9565 4744 9483 2206 8754 
8744 9571 444 2055 5725 4203 7107 2065 2963 
2754 5760 1897 7450 2251 5280 4542 2365 2875 
7406 2866 9510 2897 6738 8236 630 8444 6595 
3092 5917 3010 9724 3966 3469 3176 4011 4517 
2447 8104 336 5521 9147 666 7556 8114 7513 
7452 578 6749 4736 5286 7990 7028 9082 8931 
4846 8576 2429 3 4213 8409 6176 9515 8292 
8564 9511 7332 6836 9382 8138 549 1816 7553 
3363 8228 6680 5485 2156 5370 7850 828 9207 
7291 481 9800 5519 7045 3742 3369 2981 9881 
9480 9005 4891 6828 9220 7440 1588 3906 2946 
5411 9100 3463 7770 6013 574 2270 4219 5720 
6806 784 9527 9831 1379 9218 430 1231 9011 
5501 4419 1454 9002 3422 7262 8615 6077 2 
2266 3286 1831 6390 9731 611 8673 9645 8360 
9149 3544 9497 7439 9144 9071 7398 748 7071 
6250 3359 2441 5157 4107 6368 1225 3583 3165 
6010 7835 2942 8329 1480 44 4591 8287 5528 
7944 7346 1870 8566 8342 8368 2020 3706 1131 
8377 6655 477 868 8662 8336 1492 9253 5409 
5021 3998 9326 4176 19 6647 4814 6403 7051 
9732 8245 4897 235 9272 6975 7388 4903 3535 
5160 2355 8792 6091 6104 5928 8758 6068 4505 
3892 1427 4096 9528 8508 6101 3404 6995 2600 
543 9733 4539 800 457 7752 8338 8631 6739 
8952 3887 9414 6309 4057 7578 5623 3210 272 
6587 1932 5369 6893 9998 25 2802 4725 8655 
1836 8372 1138 5065 632 924 8735 8204 3269 
4167 6402 3160 7776 1782 1861 3253 3620 1586 
9084 2638 750 4703 5162 1943 1147 5911 2224 
6838 7937 862 1946 898 9270 4659 8857 4145 
6886 6618 2426 7714 6817 2353 1792 9610 6449 
6265 5468 7574 9762 716 2527 5124 5064 8927 
7827 1636 6162 1660 4513 2002 6167 6503 3456 
3817 1128 3237 9156 8429 673 4376 7264 8757 
329 9683 4594 1763 2601 7632 5666 2515 1917 
5929 6485 5560 5591 9524 6318 1878 688 7668 
7140 1631 1585 9955 9882 7092 5483 3532 6692 
5181 1200 8674 3698 6544 5659 397 7149 3836 
1092 482 6934 1411 4565 7583 5652 8678 4914 
511 8960 1515 5290 7482 9690 186 2311 5555 
6839 464 738 8178 8844 7938 8680 7101 7922 
7491 210 6578 8428 3052 9046 5636 8468 8849 
6625 8284 199 3021 1004 5011 6484 3584 7697 
7443 6728 5618 6283 2797 9556 3071 9484 155 
2520 2005 7979 9194 7843 1148 3943 7462 1907 
6783 1388 7650 8981 9537 83 3750 6504 3557 
9814 3637 4730 2372 8308 858 6129 9729 2333 
9325 1003 2543 9521 9364 1029 1152 297 6342 
931 6744 7495 9564 7996 1110 5308 1159 8298 
9003 3411 2416 6518 1781 7022 9725 4838 8661 
821 5163 1899 6020 3922 9137 2923 6455 3278 
6906 3731 5046 6313 7304 8534 9307 3753 9972 
6385 8819 8499 8100 3206 2957 8072 9233 1464 
426 3743 5966 3774 8639 8568 8009 8919 2569 
3081 6686 9604 8437 9435 4746 4947 5137 8389 
4715 198 4298 2214 6714 5536 5218 5047 4854 
5829 8149 4944 1132 7921 7515 9607 2256 6034 
4416 9210 4987 6890 8160 3080 107 1818 641 
6470 4220 7540 9205 5640 4169 5272 9446 2477 
4070 5180 7391 4567 7058 2442 5610 5627 8248 
3283 2588 6637 1283 4154 995 7319 6649 9465 
7331 2049 6945 3111 1406 4855 7760 767 992 
1011 1359 3009 7014 9880 7707 3542 2130 9549 
4655 7053 5188 9667 9805 7470 8373 2791 5768 
5969 8748 1967 5164 1083 5646 5906 7584 6048 
6699 8642 8908 8910 598 403 6536 8092 3610 
7600 3635 7465 8060 9352 6586 8922 3808 6955 
4518 5497 2403 9189 471 8987 8040 6414 9037 
9722 5335 6943 3528 2287 1654 2419 5586 8903 
7477 296 1712 7999 832 4355 8545 4984 4789 
1270 2105 6977 6745 9534 5440 4527 3827 4921 
126 9491 7718 6813 9588 8524 3415 5877 2892 
7472 8400 6827 5439 9834 1811 5195 6400 5745 
4461 9848 288 5471 8706 4932 3530 5300 6552 
112 4440 2546 3322 9816 2120 6668 8002 9553 
3049 7044 4840 7436 8227 3064 2253 2912 9945 
4165 3862 7516 1273 4071 7130 8086 918 2488 
8850 1527 3564 921 2176 6442 831 2022 4992 
4928 622 1315 5073 2626 8003 1226 4297 2398 
8825 6255 7404 7619 1344 4068 2822 385 7867 
1911 8801 7322 8239 2641 454 8518 7974 4521 
225 4535 8966 8614 1165 788 8799 3097 8231 
5882 4045 7173 9920 5255 2882 3848 3766 8359 
6554 7228 5461 5875 7091 8026 4841 9566 5730 
8522 4999 8474 7117 1424 6947 1595 7896 8616 
840 1920 8556 5050 8246 3942 3757 8539 293 
5987 2579 4064 5774 7132 7967 1109 3326 1353 
8493 1587 3561 5350 591 2135 9780 3486 5613 
3797 6682 2507 4927 3323 9741 4110 4080 2944 
782 7343 8151 9866 5385 6549 2054 4917 1280 
7702 3771 3241 6448 7985 9573 9628 4123 2004 
8106 6071 9358 2144 9870 7057 8797 1499 6784 
2210 8769 8105 8076 2510 2624 8098 8109 6531 
4650 4232 8108 1343 4010 1073 6782 7905 7919 
631 5739 3781 5979 3592 4822 7488 3679 1506 
1961 4424 7032 6911 4175 6100 7242 8619 7434 
3133 9042 4609 6540 7656 5063 2644 9289 3211 
6592 3094 4309 87 7449 2740 8926 445 4752 
164 5346 6889 4775 3227 4409 9163 1393 1905 
2590 970 6323 1637 9088 1786 7782 1035 6384 
4051 3465 1812 2652 9567 4882 4190 8351 6164 
2340 2096 8512 1578 2640 7640 4690 8420 6053 
1801 398 9894 5984 5756 2228 6755 1729 9828 
4340 4450 4076 9196 9614 4602 6980 2262 6958 
771 4163 5925 7339 5386 9692 1803 9048 8424 
6024 1017 2370 8161 1195 7206 9718 875 4119 
2304 406 1719 850 6670 9890 4442 425 559 
3804 4507 1386 6226 8387 4731 8452 6667 5102 
4818 6559 1978 3384 7546 4979 2376 9259 733 
854 9132 9431 5084 1810 9767 5955 539 7801 
5621 7765 8096 6572 2977 6353 9654 3014 8997 
3719 3951 780 104 2283 6499 2704 367 9764 
7747 1052 8596 5128 3776 7283 9697 1215 9568 
5275 1410 389 3200 5477 731 208 7191 7437 
9591 6786 8495 813 6644 6969 3940 6604 9406 
6685 5957 3597 7535 2557 7255 2392 4472 2820 
3588 6664 7816 7414 8938 5573 8233 2672 7320 
8709 5776 3590 2871 6462 2886 2584 5729 5579 
4592 5289 9090 8441 6061 571 4572 3768 5785 
7712 3336 7562 1467 5522 8517 1608 8942 5533 
5247 9889 5174 4062 3101 4770 1372 3713 5086 
3001 680 3295 4197 2492 2016 7591 9888 4310 
6367 2983 6546 2151 1544 9133 707 538 7672 
3325 4253 2265 600 689 1447 8531 7336 9626 
1039 4061 8933 9124 5241 3521 7590 7270 8215 
7078 110 5119 3820 9367 3595 7501 5273 8973 
5678 5393 4398 5123 3455 7127 5418 6694 9921 
8912 3339 6117 1399 6230 7175 372 3688 3086 
4294 3387 5304 2299 7795 9952 1135 2084 4607 
1093 5212 8202 5298 582 5043 3350 7683 3085 
350 222 318 5655 6263 7249 7490 855 4329 
3351 2396 6007 2512 435 4003 2341 9818 2775 
8506 6204 14 8750 3882 1724 4044 1612 5203 
8667 1234 2834 4478 6473 5091 615 2142 7561 
353 3034 6808 2175 7286 8541 3377 5982 6729 
4148 676 7943 3566 3089 1582 3730 4583 6930 
4378 5786 7180 521 8270 8289 3346 5053 627 
3276 5773 9390 2606 2305 2137 8764 1581 93 
2737 586 4411 1721 9113 1517 3762 2043 183 
9917 5922 9366 8740 3746 3331 1199 1450 7420 
6381 8745 3650 9787 8001 6428 1808 7933 2597 
4117 6629 3353 964 5728 9134 7950 5052 9334 
2787 6877 5374 8162 2263 2364 4477 6734 7657 
6214 8935 9523 2453 8830 9401 8687 2711 9492 
2968 5788 2264 7334 4285 9677 9707 5782 7193 
247 3604 8800 3459 510 7215 6721 1368 3449 
3833 5405 7691 6474 6432 5558 3931 7425 57 
6642 3236 9850 5790 7323 8872 3991 3794 985 
8722 7433 3162 8416 8080 9472 7914 7934 2369 
9339 8434 501 5566 4487 525 127 613 6737 
8788 1598 8595 7142 5288 6811 7651 5293 6003 
6766 5179 2368 7566 276 3407 1965 4780 7636 
3687 5387 3340 7888 7983 7090 4901 6172 9043 
3118 3628 2773 7426 6589 3458 6903 1319 6495 
8484 8282 7984 4320 1995 8720 1867 746 98 
3850 563 8201 7219 3139 5131 9714 7542 7307 
12 1699 9328 3676 2246 6328 4042 2591 1219 
343 3721 8726 8668 9858 6718 9570 6874 274 
876 8848 8504 8139 6716 8535 1097 8669 8489 
8729 1099 2195 5004 3709 233 9576 7536 6433 
9601 9983 1276 6181 7667 7854 1216 5884 4041 
6617 9649 2865 9219 5111 8380 9074 6392 6026 
6281 4610 9038 5205 5143 9060 2997 1956 5983 
4059 1987 2189 8624 6901 9498 9700 879 4358 
1449 4830 7438 8337 5462 9899 2745 4674 9672 
8876 9798 6123 67 7231 7447 8879 9932 546 
7114 8693 3028 2362 5888 7009 1655 5936 4371 
2858 5378 8650 2525 7551 3229 2252 958 4323 
5710 1488 5364 1991 1186 5252 7017 705 5098 
6768 888 8140 7769 9925 9494 8022 4961 8815 
2466 5367 9138 5037 6847 9493 8081 2599 3923 
2771 7266 5561 395 8731 7895 8011 1470 8640 
2190 5183 516 2031 9727 1780 9427 9026 3777 
7138 6696 1381 5404 6648 8623 7948 6207 3483 
8856 9517 6413 9066 5737 7901 9271 3048 9752 
9896 3109 9092 7621 3793 9505 8084 7641 7625 
1950 9641 2092 1461 5527 1923 6429 7969 2859 
165 8217 9826 2894 7235 5085 9299 2685 8141 
2870 7126 6974 1620 911 799 5486 185 5496 
2759 33 9973 1618 3108 5457 7160 446 3167 
7271 8794 2726 4536 7534 8749 4241 9329 1351 
709 7819 4498 7677 1042 3490 8802 4710 9027 
5924 5120 1746 2146 7690 8221 1962 9666 7595 
92 6508 756 8101 2276 4382 8358 8473 2947 
1566 7947 757 7520 3088 4109 9311 5326 6114 
9279 9829 5548 9768 6506 3457 8675 1375 548 
9206 1524 8747 819 5204 9806 1479 2201 3260 
6880 7686 5574 7869 170 1371 9820 5954 4122 
6799 993 2153 4066 9104 8459 9742 6537 7893 
7924 5544 9770 4633 3949 8708 2386 770 3416 
5316 6312 3605 2863 6912 7844 3513 7030 5217 
2852 8625 6004 6608 7917 4936 4006 7568 8069 
5999 7241 3381 3330 4266 7369 1496 6187 1174 
9552 9416 2979 9161 4324 9824 7211 1693 4848 
8854 7352 723 6562 8465 6672 6247 912 8780 
4162 3222 2573 5696 7380 4168 663 5383 7306 
8697 4890 4308 7766 8061 1606 8375 7269 1210 
9734 4102 9562 5713 8692 8571 5699 6936 61 
6221 5221 3739 9447 133 5094 695 9874 9792 
7370 2181 6465 9749 9202 9664 8269 6044 6925 
3626 8350 809 4654 7223 6850 7912 2435 8811 
4447 3382 4408 3648 5537 7730 9991 5493 3409 
1851 9188 857 5787 6693 2061 944 9475 9238 
7834 9059 5258 5616 5903 2536 6675 8062 6412 
9616 4451 5826 9596 4888 7842 1504 5604 9802 
1439 4048 8737 5688 9089 6509 1443 7733 6350 
2841 3716 2159 6477 9061 7003 7390 2552 8408 
7631 3720 6870 9935 2345 7281 5324 376 2965 
8738 8209 8354 6703 1346 9632 7872 310 1538 
362 6780 2739 8818 6761 3360 2327 6956 6025 
6804 9822 6613 4699 4603 6371 9445 776 4797 
9869 7295 6054 5637 2158 1191 1133 5718 1405 
4794 4758 9986 8205 9721 8511 9957 5325 6661 
2037 8934 9761 7639 8301 6862 9025 8015 2404 
4432 9107 9912 5302 3547 6846 3440 9165 8461 
6236 5176 1594 6017 6351 5281 3338 3712 5109 
7673 6878 5472 1155 9035 644 3744 9691 5045 
7373 1438 6558 2498 8450 843 2553 672 7354 
5942 66 6057 7529 5864 6779 999 4587 7627 
7097 4187 8348 7538 4402 4393 2472 4130 6378 
6151 8507 6070 2595 2501 3734 4153 2855 6301 
9878 6858 2317 2712 1860 6213 4958 5964 1066 
4646 2753 150 807 8447 1692 3491 9975 8185 
8902 9516 8049 526 1425 6807 7265 6973 9763 
6941 6065 5755 5268 8643 9231 4559 2417 5933 
7152 783 7643 5619 8197 5012 3858 4974 6055 
4971 9931 8262 315 1308 7531 9577 9099 374 
9093 7862 8784 2620 8457 1891 7341 8827 6741 
9252 3764 3846 5783 7755 4997 1380 8588 8977 
3546 9001 3881 7915 9879 3485 5569 9525 4849 
8988 1084 7757 8985 2412 5329 2816 6711 4299 
8273 6662 3799 2893 6872 1902 8610 8707 2991 
1805 9547 9919 8073 6710 2079 3821 2663 5265 
2554 2208 375 1947 8371 8510 1119 339 9897 
6944 5886 9077 8065 960 1239 9708 6897 9160 
1883 5209 4353 8672 2082 7945 5905 4734 5104 
2767 8018 6764 2119 2810 9468 6483 5808 7721 
8285 9197 8957 3418 2464 5716 9599 9612 1297 
589 4188 1332 4883 5187 6397 3358 6246 4869 
9481 1077 2843 6376 664 9990 9029 5118 2418 