# vtk DataFile Version 4.2
Generated by LIGGGHTS
ASCII
DATASET POLYDATA
POINTS 10000 float
-0.00489481 0.00115679 -0.040809 -0.00258642 0.000897938 -0.0410182 -0.000790058 0.000898023 -0.0410956 
0.00173616 0.000898511 -0.0410707 0.00352668 0.000905889 -0.0409494 -0.00302432 0.00264017 -0.0409924 
0.00020838 0.00245602 -0.0411025 -0.00478593 0.00295426 -0.0408223 -0.00184174 0.00399654 -0.0410639 
0.00493552 0.00297813 -0.0408019 -0.00368833 0.00437978 -0.040936 0.00105925 0.0040406 -0.0410872 
0.00285591 0.00407983 -0.0410038 -0.00413878 0.00611956 -0.0408991 -0.00239876 0.00570425 -0.0410383 
-0.000538943 0.00526648 -0.0411001 0.00194903 0.00562862 -0.0410563 0.00452858 0.00591065 -0.0408511 
-0.00113132 0.00699795 -0.0410914 0.00119899 0.00726396 -0.0410938 0.00310544 0.00699996 -0.0409863 
-0.00494759 0.00816144 -0.0408042 -0.00317934 0.00843139 -0.0409785 9.08627e-05 0.00867716 -0.0411018 
0.00327208 0.00878503 -0.0409748 0.00477068 0.00780144 -0.0408309 -0.00140681 0.00979572 -0.0410824 
0.00182891 0.00988698 -0.0410617 -0.00379422 0.01012 -0.0409258 -0.00280826 0.0117657 -0.041004 
-0.000817564 0.011844 -0.0411005 0.00131622 0.0116259 -0.0410836 0.00311504 0.0114313 -0.0409848 
-0.00446177 0.0126065 -0.0408593 -0.00186366 0.0133022 -0.0410613 0.000158827 0.0133551 -0.041099 
0.00238288 0.0130692 -0.0410351 0.00417537 0.0130552 -0.0408925 -0.00360116 0.0142713 -0.0409409 
-0.000920963 0.0148376 -0.0410893 0.00320934 0.0146638 -0.0409834 -0.00433923 0.0160058 -0.0408713 
-0.00250486 0.0156976 -0.0410292 0.000835045 0.0152637 -0.0410909 -0.00114114 0.0171774 -0.0410935 
0.00249579 0.0163678 -0.0410268 -0.00316454 0.017396 -0.0409781 0.00101027 0.0184668 -0.0410943 
0.0039211 0.017462 -0.0409129 -0.0042401 0.0192015 -0.0408868 -0.00244755 0.0192005 -0.0410377 
-0.000643087 0.0191954 -0.041094 0.00267744 0.0192007 -0.0410133 0.00447006 0.019183 -0.0408594 
-0.0108757 0.000959662 -0.0396366 -0.00914729 0.00118639 -0.0400775 -0.00665635 0.000898721 -0.0405589 
0.000465686 0.000891767 -0.0398122 0.00531293 0.000901501 -0.0407651 0.00783955 0.000893619 -0.0403527 
0.0101373 0.000896616 -0.0398326 -0.0101524 0.00266039 -0.0398262 -0.00776619 0.00229959 -0.04036 
-0.00605296 0.00254005 -0.0396201 -0.00139033 0.00238548 -0.0402914 0.00169075 0.00240308 -0.0400869 
0.00348187 0.0023845 -0.0399248 0.00700491 0.00247787 -0.0405037 0.00898939 0.00224829 -0.0401077 
0.0108134 0.0026223 -0.0396539 -0.0086602 0.00394117 -0.0401826 -0.00687728 0.0038524 -0.0405236 
-0.000374378 0.00384194 -0.0400194 0.00961398 0.00392289 -0.0399682 -0.00540979 0.0048608 -0.0407442 
0.000924684 0.00514007 -0.0396692 0.00573524 0.00458627 -0.0407034 0.00748939 0.00420483 -0.0404127 
-0.0100091 0.00523024 -0.039863 -0.0073916 0.00557046 -0.0404311 0.00319528 0.00537441 -0.0397702 
0.00781858 0.00596933 -0.0403511 0.00968804 0.00571638 -0.0399456 -0.00885162 0.00657388 -0.0401412 
-0.00740897 0.00762095 -0.0404266 -0.00591606 0.00664628 -0.0406757 -0.00250222 0.00712652 -0.0399451 
7.07438e-05 0.00687957 -0.0397637 0.00615177 0.00667115 -0.0406415 0.00894846 0.00734603 -0.0401133 
-0.00902198 0.00835931 -0.0401056 -0.00120757 0.00837096 -0.039901 0.00178329 0.0084974 -0.0399224 
0.00731945 0.00802569 -0.0404468 0.010612 0.00789228 -0.03971 -0.00962657 0.00999553 -0.0396933 
-0.00786527 0.00972432 -0.0399299 -0.00623785 0.00940247 -0.0406243 -0.0025465 0.00955723 -0.0397239 
0.00641603 0.00957192 -0.0405956 0.00819316 0.00958618 -0.0402763 0.00994793 0.00960669 -0.0398831 
-0.00672769 0.0112491 -0.0396394 -0.0053321 0.0110354 -0.0407526 -0.0016814 0.0111312 -0.0397035 
0.000193214 0.0103623 -0.0404896 0.00307591 0.0101031 -0.0397782 0.00482872 0.010269 -0.0401235 
-0.00841841 0.0114078 -0.0402296 0.00555107 0.0117902 -0.0407373 0.00875389 0.0112895 -0.0401627 
-0.00968249 0.0126522 -0.0399426 -0.00769871 0.0130504 -0.0403798 -0.00597033 0.0128581 -0.0399166 
-0.000864649 0.0128645 -0.0396275 0.00705468 0.0127478 -0.0404891 0.00999246 0.0132164 -0.0398651 
-0.0095272 0.0144438 -0.0399813 -0.00646554 0.0147836 -0.0405988 -0.0049469 0.0143292 -0.0397475 
0.000714823 0.0142263 -0.039626 0.0057374 0.014788 -0.0396417 0.00872719 0.0144611 -0.0401629 
-0.00760507 0.0158395 -0.0397026 0.00219445 0.0152696 -0.0396382 0.00424088 0.015722 -0.039967 
0.00720719 0.0153772 -0.0404705 0.0102817 0.0152875 -0.0397936 -0.00945528 0.0162461 -0.039999 
-0.00617338 0.0165571 -0.0406361 -0.00138823 0.0161043 -0.039681 0.000945088 0.0168526 -0.0402537 
0.00573255 0.0163789 -0.0407041 0.00852899 0.016561 -0.0402127 0.0108025 0.0170056 -0.0396545 
-0.00772543 0.0174997 -0.0403705 -0.00480476 0.0176394 -0.040201 -0.00184844 0.0180726 -0.0397122 
-6.4171e-05 0.0182288 -0.0396828 0.00245173 0.017787 -0.0399263 0.00530208 0.0178966 -0.0398438 
0.00703788 0.0175932 -0.040495 0.00942897 0.0181151 -0.040003 -0.0106454 0.0192022 -0.0397019 
-0.0089009 0.019202 -0.0401261 -0.00713955 0.0191942 -0.0404776 -0.00554369 0.0192058 -0.0396537 
0.00625313 0.0192036 -0.0406302 0.00802349 0.0191994 -0.0403088 -0.0127293 0.000889438 -0.0390811 
-0.00766762 0.00092606 -0.0390745 -0.00552024 0.00089438 -0.0391444 -0.00374664 0.000976838 -0.0394365 
-0.00136522 0.000899144 -0.0392797 0.00249015 0.00091439 -0.0394465 0.00427703 0.000893267 -0.039309 
0.00689662 0.000896677 -0.0388341 0.00869136 0.000899319 -0.0387658 0.0118473 0.0011805 -0.0393592 
0.0135334 0.000896742 -0.038808 -0.0137958 0.00227637 -0.0386804 -0.0118744 0.00243577 -0.0393553 
-0.00868565 0.00240027 -0.0388171 -0.00455796 0.00222961 -0.0384258 -0.00223487 0.00248824 -0.0387149 
-0.000165529 0.00207523 -0.0386326 0.00564561 0.00204855 -0.0394193 0.00774524 0.00262936 -0.0388734 
0.0145602 0.00232055 -0.038433 -0.0131466 0.00393134 -0.0389453 -0.00961877 0.00393128 -0.0386689 
-0.00748599 0.00375197 -0.0388372 -0.00361869 0.00335931 -0.0394591 0.00075962 0.00362595 -0.0386446 
0.00244696 0.00381841 -0.0392756 0.00617223 0.0037619 -0.0391711 0.012535 0.00298842 -0.039149 
-0.011398 0.00415696 -0.0394908 -0.00523594 0.00405333 -0.0391002 -0.00202453 0.00416961 -0.0392888 
0.00443489 0.00410205 -0.0394889 0.00730014 0.00512528 -0.0388515 0.0115732 0.00447512 -0.0394428 
0.0142802 0.00409111 -0.0385422 -0.0140715 0.0054404 -0.0386151 -0.012228 0.00572894 -0.0392439 
-0.00844257 0.0052636 -0.0389832 -0.00607039 0.00564013 -0.0391986 -0.00325606 0.00545588 -0.0394855 
-0.00134635 0.00579967 -0.039588 0.0056324 0.00564829 -0.0392614 0.00862622 0.00631914 -0.03863 
0.0113451 0.00626015 -0.0395021 0.0130603 0.00535987 -0.0389748 -0.0133581 0.00707178 -0.038876 
-0.0116804 0.00743664 -0.0394079 -0.00994462 0.00734235 -0.038946 -0.00814925 0.00708681 -0.0385675 
-0.00464859 0.00672935 -0.0392991 0.00201322 0.00671625 -0.0395916 0.00404952 0.00692053 -0.0394431 
0.00697991 0.00689963 -0.0390622 0.0134161 0.00713278 -0.0384327 -0.0145543 0.00834104 -0.0384361 
-0.012919 0.00880342 -0.0390289 -0.00864316 0.00880575 -0.0384124 -0.00602618 0.00809011 -0.0393737 
-0.0038349 0.00832585 -0.0393071 0.00036961 0.00837037 -0.0388128 0.00279745 0.00794739 -0.0385442 
0.004164 0.00871464 -0.0394203 0.00591723 0.00831704 -0.0393683 0.012295 0.00829464 -0.0392223 
0.0143051 0.00868859 -0.0385345 -0.0115295 0.00985795 -0.0394551 -0.00651413 0.0097001 -0.0387457 
-0.00486906 0.00978733 -0.0395226 -0.000659268 0.00982835 -0.0390063 0.00194743 0.00958609 -0.0384878 
0.0052865 0.00973843 -0.0384719 0.00703022 0.00969693 -0.038908 0.0087608 0.00935013 -0.0385638 
0.0109108 0.00911052 -0.0384221 0.0130572 0.0099031 -0.0389767 -0.0135929 0.0104521 -0.0387839 
-0.00821444 0.0110769 -0.0384732 -0.00346382 0.0111123 -0.0394625 0.00606247 0.0112222 -0.0391166 
0.00811385 0.0110824 -0.0385008 0.00988175 0.0110151 -0.0387741 0.0114568 0.0105384 -0.0394755 
-0.0130879 0.0121683 -0.0389634 -0.0106153 0.0113602 -0.0390836 -0.0051183 0.0115135 -0.0388791 
-0.00225018 0.0124141 -0.0385806 0.000803555 0.0122255 -0.0394729 0.00248041 0.011677 -0.0391555 
0.00421725 0.0118717 -0.039544 0.0115086 0.0123379 -0.039455 0.0131179 0.0117023 -0.0389503 
-0.0114042 0.0129154 -0.039499 -0.00838837 0.0136361 -0.0388366 -0.00389273 0.0128353 -0.0391702 
0.002333 0.0135144 -0.0392993 0.00559486 0.0130141 -0.0394346 0.00837451 0.0127599 -0.0392069 
-0.0128049 0.0139428 -0.0390506 -0.00669308 0.014432 -0.0388624 -0.00253154 0.0139509 -0.0395296 
-0.000928664 0.0145275 -0.0389608 0.00411793 0.0140274 -0.0393867 0.00736113 0.0143639 -0.0389978 
0.0119061 0.014617 -0.039343 0.0135078 0.0139835 -0.0388168 -0.0131727 0.0156951 -0.0389366 
-0.0111964 0.0149589 -0.0395491 -0.00888989 0.0153366 -0.0385561 -0.00330393 0.0155682 -0.0394341 
0.000210865 0.0159379 -0.038881 0.00907355 0.0159485 -0.0386168 0.0131776 0.0158205 -0.0389371 
-0.0115775 0.0167641 -0.0394443 -0.00498524 0.0161567 -0.0392014 -0.000896114 0.0172746 -0.0384124 
0.00332377 0.0167063 -0.0387881 0.00634453 0.016391 -0.039014 -0.00876959 0.017504 -0.038908 
-0.00632382 0.0176485 -0.0392165 -0.00338041 0.0173362 -0.0391441 0.00124993 0.0176779 -0.0385909 
0.00777807 0.0174682 -0.0388623 0.0126476 0.0175284 -0.0391114 -0.0128224 0.0191992 -0.0390548 
-0.00705671 0.0192015 -0.0386823 -0.00320751 0.0192047 -0.0394219 0.00143144 0.0192063 -0.0395145 
0.00345771 0.0192008 -0.0393785 0.00608364 0.0192045 -0.0388506 0.00782502 0.0192038 -0.0384109 
0.00961704 0.0192064 -0.0385339 0.0110635 0.0192042 -0.0395906 0.0125614 0.0192024 -0.0384619 
-0.0173456 0.000920738 -0.0372649 -0.0151075 0.000900099 -0.038231 -0.0134859 0.000898642 -0.0374565 
-0.0113704 0.00116966 -0.0379225 -0.00956425 0.000896915 -0.0383643 -0.00811294 0.00123715 -0.0373622 
-0.00590538 0.000895974 -0.0373887 -0.00264675 0.000891937 -0.0380163 -0.000581161 0.000894934 -0.0373482 
0.00122192 0.000898536 -0.0381801 0.00342193 0.000896397 -0.0377344 0.00537624 0.00102376 -0.0379016 
0.00768581 0.0015499 -0.0373627 0.0106054 0.000897145 -0.0380962 0.015585 0.00089817 -0.0380355 
[...]
POINT_DATA 10000
FIELD FieldData 7
id 1 10000 int
974 6192 3977 5178 1006 2207 4423 1718 6943 
254 1619 4510 1697 7186 3089 2922 5866 1065 
4745 8790 7676 7837 9906 3692 7440 4595 1555 
4250 2295 6505 2960 2075 1552 3914 6043 5473 
1603 2467 3074 3871 5079 8829 6781 6970 1081 
8871 1650 1597 4229 9962 1973 438 7247 7046 
2212 4481 9297 8190 1224 216 1267 9871 620 
2015 2937 6924 2133 2380 9213 1362 4037 663 
599 1192 3042 2447 7193 3410 7058 8353 4176 
625 1929 9630 3842 4120 1553 1528 8765 7077 
8099 1990 1876 8764 7996 2547 9957 5392 3 
4472 8085 3009 7602 1558 4397 5116 3595 8351 
9028 2574 8382 5640 1651 9584 1330 3649 7434 
4053 4234 3367 4802 2600 6991 7652 6830 998 
8552 3770 9564 9420 3787 6812 9694 3932 6009 
1411 2847 1889 4833 8469 3318 9726 1248 5701 
3677 9658 6587 2018 3774 7974 3700 3714 6619 
102 4325 912 7604 5853 9170 4482 4009 357 
3357 4179 8557 7245 2530 6395 4912 5230 9894 
3288 8575 7618 1952 7669 404 1368 5133 2713 
3417 2307 8780 88 4989 290 7942 4485 8791 
473 3116 1309 2614 4601 7781 1559 3585 6819 
2179 2941 6430 2202 2706 9439 9578 9693 7737 
3822 8768 2582 180 4208 4669 9774 838 9130 
3329 5311 2222 913 8518 1164 7705 902 8578 
7843 5487 1394 4852 761 2371 62 5229 2251 
772 4473 273 3429 3092 2980 6498 7937 2491 
9079 3612 7410 4475 3754 1716 108 1057 160 
334 1865 1741 870 9844 7503 9978 3910 5746 
7415 1473 2698 9902 4783 9409 3043 4030 4705 
3339 3110 7133 3885 3212 5846 8334 4104 4909 
6144 4064 8025 4767 5333 7689 8304 5759 6246 
6691 2718 4263 3765 8103 4235 2749 3958 4849 
885 3693 6035 5067 6073 9936 16 4793 6268 
9335 5152 5312 7923 6773 5154 3900 1996 8816 
9968 8742 5097 3405 5126 3035 3131 9592 5346 
3214 9600 4171 3050 1997 250 1294 2462 3645 
1136 3916 2938 9741 2403 3194 3129 7076 3905 
4895 6184 2873 1422 8055 479 8601 1401 4070 
673 4273 60 6460 9396 463 2802 9659 8991 
7199 5685 7289 4618 3406 2109 8550 411 817 
3625 3956 4811 7442 4236 5956 2931 5468 3782 
1819 9688 2719 6060 1076 8895 2883 570 6385 
4368 929 5916 1847 4677 1139 3460 8586 3284 
4143 4506 2945 1680 2875 5148 1958 834 9526 
3859 370 1475 508 8372 7446 7887 1756 1821 
8984 4313 3708 4317 1323 4532 7752 2861 3941 
4720 4375 4458 2030 1212 8994 9883 3747 5074 
222 3003 3694 4873 2182 5646 3243 2664 5307 
1817 4008 9608 3488 9782 6726 6344 1568 6555 
5041 7379 4536 8882 1456 5305 1479 9430 5474 
6063 8641 1502 8365 5062 8546 4476 1614 6436 
6307 5264 5144 3868 4256 141 7554 288 8122 
5694 4886 1374 4751 5061 8554 9438 3525 1035 
2955 1982 4808 4863 4749 3309 4427 2531 6687 
9179 7282 4114 7980 5361 5885 4341 2083 4926 
2725 1884 1395 9536 2272 2678 661 699 3696 
5207 6126 5118 1664 9178 9402 8692 3961 6422 
9646 8883 4212 6469 1641 5269 3543 3472 9953 
2479 9444 6770 1652 768 6782 9008 2797 5970 
1533 295 7539 3599 9825 9545 6186 5433 6079 
1300 2699 8113 839 1892 9502 3266 1091 2734 
9486 1434 2714 3435 6222 4622 1677 3011 7852 
4894 6829 2974 5867 4550 11 2087 8349 9022 
4012 9622 6274 6048 9999 5767 589 1874 326 
7225 197 4726 7904 8831 3423 7671 2463 7861 
4437 6524 3258 1767 2457 3517 6778 4210 9650 
687 4049 562 4928 6404 1498 1531 8877 3507 
1173 6284 1959 4358 4300 5609 3697 1799 9149 
9811 4499 1312 532 1703 7725 5373 3816 3033 
4118 1557 4240 7188 2510 3975 1717 7258 1100 
2487 3388 719 5172 3669 3973 8806 9321 791 
1978 9015 455 9935 6909 5689 6401 452 9369 
1906 2103 5001 2867 955 495 3133 9604 5780 
4865 9394 1806 4173 3002 804 2929 7423 4074 
2217 1016 9004 7065 8480 3345 9240 8267 4541 
9717 3494 1909 991 3857 9985 2255 5761 4558 
4377 3596 1512 6277 3801 6648 6955 3902 7955 
1903 8119 727 3313 3072 8327 3156 1791 3308 
4128 2541 4127 3539 2921 6304 3445 6862 1625 
1176 3546 3173 6449 9769 5799 9849 1371 432 
4905 736 2901 4733 2609 1710 6174 3505 9947 
1 9496 3390 2853 2619 1213 7000 677 245 
8923 1833 4629 797 4628 6520 1249 2096 1409 
561 6398 4857 3397 1044 4056 7897 4121 7758 
7965 4606 7557 9813 5622 1345 4443 9284 3018 
8652 8311 2356 816 8682 3189 1604 3498 459 
1938 9949 4741 5582 4100 4929 4276 1800 4907 
1529 6679 4343 5610 3632 5127 9796 2799 1233 
1795 4106 6615 787 601 7230 3027 3123 7435 
670 7450 9341 4728 3950 638 8529 1316 22 
6056 1645 9715 8477 6366 7033 6624 1779 8123 
4307 6444 5809 4117 1679 5391 8379 9725 8143 
3126 2243 6815 1794 6180 3439 1968 5380 6831 
2437 8746 7794 186 2072 6388 7213 2398 9356 
3281 8173 2117 2260 5935 5590 5005 2002 3563 
8697 1764 9201 3215 4435 9474 8154 1412 7106 
6491 7054 3577 6731 9239 6029 8835 9463 3384 
2201 2891 4822 9095 4153 8030 1750 4673 2481 
9860 4232 2913 2112 880 3142 1743 3572 1666 
1661 6599 1259 6204 801 1036 7401 9695 3555 
734 4289 8937 6638 5872 3012 4215 3259 1373 
177 1404 8033 6673 5548 2835 690 5764 9914 
9689 1590 447 3659 2686 1747 7358 9701 9822 
9961 3954 5901 8242 1028 327 5648 4727 7350 
2950 8997 9926 1912 2999 1960 92 8519 3811 
6018 9903 8798 5766 1021 4695 3319 8251 1005 
5732 2359 3825 8569 9575 4072 7943 5451 796 
1523 9994 4414 3493 1416 2766 6109 4994 6727 
5191 4152 3248 2198 1378 10 6882 3715 1078 
9531 7696 4841 2132 8223 9794 3673 6343 1023 
809 8847 3299 7304 9518 39 3385 857 3170 
8773 3653 1640 565 4489 9327 4949 2052 4217 
922 4520 4554 2006 3113 9256 4648 5478 3091 
9252 5374 7561 1026 2323 3851 7983 6904 8392 
8646 2384 9672 1742 7480 3955 7470 9291 4930 
915 8542 2089 8511 1993 575 1824 9308 3381 
1113 2989 9034 1014 3705 4717 7078 6602 7720 
8310 5459 6620 2060 9151 7333 9024 923 279 
5947 2649 4426 2092 9519 2080 14 3927 5963 
3646 1438 5629 8809 3783 9670 1639 4776 4025 
8611 9512 4869 5981 4867 8342 2458 659 8225 
2746 5039 882 1596 990 3454 1832 1381 7353 
4107 6025 4518 9232 4514 2334 3295 385 6339 
8870 1524 4587 8313 7463 590 9280 3893 2565 
8039 9580 8970 7759 4505 6414 1530 67 8384 
1780 7952 600 5434 8779 4999 5016 7945 3238 
2501 4773 7913 4735 1913 3172 425 9235 7060 
6133 460 7411 3420 5636 1303 1147 331 2248 
5224 4488 15 2374 1796 3915 6516 2668 9841 
2366 5597 5445 219 1157 8413 5985 4646 945 
4626 4748 439 3453 730 4799 7124 8714 7563 
7633 3829 6428 4455 8723 509 1256 2213 8758 
732 5345 3163 5829 8366 585 5777 819 3570 
3470 2588 518 8293 2650 6111 268 4244 8080 
9383 2842 9997 8698 5356 789 7808 8583 2824 
1413 4580 35 5865 8417 872 642 1032 2292 
3512 4667 7460 1501 4807 4791 3550 8961 347 
1133 7797 3434 900 728 766 3471 6872 5018 
664 8576 3866 8151 6800 54 8261 2956 5632 
2804 2321 1074 1204 986 1043 9360 9760 5048 
5540 811 737 1189 7311 2163 3724 9667 3283 
4226 1508 7355 1159 6919 2375 9932 1901 1808 
4759 6364 8549 2884 4978 9755 5620 4218 1326 
3487 607 9146 4052 3831 7061 5900 5555 4666 
8514 2414 3015 3567 3368 9084 7839 283 8024 
6354 5254 8329 7688 1962 6838 2242 5924 5569 
9737 6777 1940 2561 1402 2995 4172 6543 9610 
5196 8781 4915 8901 4486 7558 9302 5952 3344 
4083 2420 5040 1392 3874 4508 8370 773 1298 
8415 2874 5232 1356 5100 2353 9061 7276 7348 
7918 9616 1841 9147 9734 4960 3622 3740 7224 
2981 2904 6183 5012 8807 3994 2149 9764 5322 
2796 2199 4258 7772 401 6112 6805 7836 5642 
3792 8237 5534 4501 6826 4686 2186 1691 2167 
9236 7486 3466 4789 8340 6178 745 4286 8019 
954 2116 3499 1970 8672 7532 6142 6489 1347 
5693 7686 396 9386 1965 9891 8275 2498 5484 
7200 2147 392 4716 5124 6577 6998 2205 4302 
427 8658 8132 7870 6134 9596 9679 1045 4756 
4500 7754 4530 5613 3704 7299 3063 2905 8525 
5486 7075 1934 4213 9988 1321 3946 3169 8852 
6418 1253 9614 9728 4880 5721 5787 1975 4654 
1599 4105 8502 2940 6884 7144 3152 3743 4073 
7750 354 4605 6217 5652 1235 4504 708 2404 
2854 5818 4884 9099 1600 3552 361 8257 6316 
5798 4379 2723 2524 2688 8097 9887 8912 2480 
3137 7846 7988 1462 3587 2519 3608 3426 4004 
2789 8070 6504 3159 5463 1675 5862 1031 1726 
3620 3130 5945 1120 5973 4578 5800 4280 8930 
8725 7345 8328 9025 1813 1079 10000 4803 9422 
2770 5906 6229 6590 5728 3386 4398 7339 6322 
6251 925 6875 6185 242 9418 2969 6978 441 
6152 9303 8058 7327 4939 8749 9509 2056 6270 
7428 6742 3174 2633 950 8626 3575 9190 1807 
3253 6833 871 5159 4321 133 5860 1746 1684 
2865 1375 8038 612 7375 4202 341 6607 9607 
2254 6508 379 9064 9778 7749 5984 7729 559 
293 3414 6711 6795 5011 9010 3936 7506 3534 
9727 8592 3890 8963 5758 6583 8772 9916 5489 
28 7939 5664 3721 3233 6527 5260 1383 6836 
4069 42 779 3312 814 1451 2290 2411 2091 
6151 9132 263 3556 1894 4329 3059 8378 5782 
5614 4718 9560 3998 8481 1740 4940 6487 2512 
1108 6011 1041 5697 5914 7873 9746 5171 4680 
5615 1166 4125 8668 4788 6293 2102 6789 6614 
7418 8357 5741 4305 300 6074 2503 2636 7626 
4954 6445 770 5558 5014 1561 7885 2680 7493 
8496 1221 7274 1099 971 4487 8704 1274 6341 
2208 4918 6080 2031 6172 7467 3273 4465 5277 
1920 3626 3879 1171 5905 3579 1325 4440 3938 
5909 630 2528 2394 154 6285 4828 3845 2726 
8193 3109 4737 2807 5294 1342 7098 5408 9521 
7145 3761 4864 3565 9690 9625 8315 470 3621 
7857 4060 7312 6707 2907 3848 3270 9626 8064 
2036 2492 6452 2177 5241 120 5599 7740 2935 
4410 8422 7168 2085 1499 3887 3306 648 6168 
6295 7270 4344 7993 688 6407 7141 888 8444 
9591 8759 629 5810 4876 1872 3293 9108 6565 
2169 8695 6330 2206 8720 2502 1778 7963 964 
5890 6842 4223 2084 2979 519 4658 1487 109 
3192 7822 8170 8833 214 907 7662 1226 5107 
6864 4919 1476 7090 941 4542 4350 4277 3883 
3085 8192 8911 8810 4602 4688 3718 8066 7748 
8805 2578 7990 646 3413 8368 2933 6717 5436 
6588 6046 9595 1069 7001 4421 4856 6431 7338 
8486 6372 1184 7464 5589 4585 4045 5533 7581 
5707 4378 4260 8623 8361 53 4270 3889 4148 
4630 333 4175 5245 4906 3623 2230 1935 994 
6696 6381 474 3925 9706 1148 4815 4216 3223 
8985 5531 8239 6976 5301 1648 6302 805 9031 
9598 6218 825 2093 8246 7089 5331 2558 2669 
5120 4722 7329 4207 6207 2244 7347 3880 276 
762 4470 3898 5235 8484 58 8522 456 8474 
6076 884 155 3802 5791 891 9269 569 8096 
7660 1789 103 9901 8669 3789 4814 4545 8556 
270 8153 4228 5730 3847 3256 5657 7606 7394 
1835 9358 8 7187 7793 2348 6482 4627 2305 
2743 1244 616 3249 3490 5072 3904 514 1851 
2121 3819 1266 7722 6685 4259 3254 4484 1972 
2595 8385 7551 5019 3365 3298 2648 1273 2180 
93 837 9925 6419 9184 4101 6761 859 3760 
3763 9387 9376 6283 6067 349 9357 1491 5823 
1254 2115 95 7356 2442 8174 7364 7223 2618 
6373 2336 6187 5119 5310 940 4902 5748 9640 
6290 3739 7430 301 3073 1814 3993 3846 2468 
2365 2521 1836 6227 8797 7819 6409 2475 9946 
3197 3569 1453 645 741 1753 161 9067 390 
8825 142 436 8879 350 1187 3039 1771 976 
8269 1275 8296 9544 6296 7335 5953 6713 2730 
7059 5875 709 992 9553 3650 2973 512 7123 
1822 3220 989 264 8830 5786 6311 1138 7056 
12 2446 3178 7609 8957 3330 5388 8057 1991 
3963 7100 7176 2131 1518 920 3101 9920 8354 
9045 412 1310 7257 7898 1864 7562 8142 7879 
3559 4924 1067 8206 2543 5871 9382 65 1086 
8397 9535 6715 1818 9745 5740 8676 868 9166 
7322 7045 5804 9320 875 572 2047 4108 7489 
435 2917 4490 9893 8956 485 9368 5047 6005 
5673 780 2977 6531 8801 7267 3827 3604 577 
4119 6669 8326 2341 400 627 6977 395 8243 
5790 2860 2354 4214 85 1024 853 302 1322 
6239 5792 8213 4162 2088 4612 9488 5339 7354 
344 7091 8011 5593 8124 6171 876 548 6411 
2998 8321 5557 81 8188 2431 4640 7162 6828 
5349 7068 7378 3449 3535 1784 6852 3638 637 
5421 5167 6618 1509 6118 6297 6663 1638 500 
5816 6485 4942 9036 2662 9271 2151 4615 7655 
190 6869 4870 7201 3128 278 6876 6165 4761 
5317 3593 2679 9845 613 1700 4281 1293 9853 
2848 4739 6944 5677 5929 2358 9696 5032 2032 
5351 6657 7514 3301 6091 4020 5788 8462 1350 
8561 4971 1179 3502 2985 5493 174 5372 4866 
4399 8965 200 5343 8792 1837 4567 6408 8960 
9870 9664 1132 159 2644 9996 943 9579 8432 
887 5690 5225 9073 417 1575 9698 8483 5955 
6387 3463 472 3013 2702 7498 747 7085 3817 
8072 1229 7617 3818 9922 4109 3438 4 18 
4836 9928 4385 792 6438 2174 9301 2347 5659 
9069 409 1194 1566 9428 5266 1436 2948 2118 
9174 1257 1671 2707 7235 4080 1237 8526 8709 
4991 5240 4078 9721 2176 3772 1897 3876 4150 
4853 1315 6163 2682 524 934 475 4704 8609 
8844 2639 25 2912 4840 1592 9072 4323 6325 
5058 3202 7152 2844 2926 1985 3468 3081 5931 
9001 9203 9155 1770 6745 265 9330 3504 4198 
4947 4715 985 1879 2421 4642 8858 4951 6337 
2567 2338 5078 2110 9609 3332 1496 614 9091 
8027 236 6094 4524 6947 2837 2656 4846 2051 
7766 7027 3837 2761 3431 4752 1089 522 3758 
6840 7956 1769 4885 7457 4137 1448 8868 9207 
4205 8610 4272 5102 8411 8412 6368 5324 2280 
9311 2712 2517 523 7028 9515 3079 3991 5283 
5870 6392 2086 1372 9588 6759 9241 1882 6867 
4599 6416 7831 8541 794 6044 5411 3503 5086 
418 5402 1660 1252 6816 2762 4543 8263 9525 
5370 4011 8675 6993 5259 8468 5160 4147 477 
4310 20 5851 4184 9246 9549 8424 752 7006 
5464 2765 707 678 6027 4453 2735 488 5775 
2626 874 8516 4242 2007 9282 1587 564 2880 
2026 8181 389 4046 6929 4158 5246 1214 1011 
6362 2274 692 5398 5146 2001 3326 2048 823 
4800 9805 5407 731 8364 5661 6156 2606 1739 
1783 7175 4668 8577 1292 6256 7455 9501 812 
9334 6743 1665 1748 5586 2197 4156 4006 7774 
1034 1240 4941 1335 3117 6592 2507 7883 6871 
2687 1105 8135 5756 6644 6367 5369 7601 6115 
457 5139 4974 9288 4334 4411 5293 3246 4186 
1873 3852 8000 5655 9393 3712 2885 6351 6675 
8892 4324 8001 2760 1856 3419 717 311 2308 
9882 2721 9956 1135 8176 8065 2324 2209 3264 
5903 6054 3516 4268 8751 1689 444 6683 9144 
4692 2037 9362 6182 3733 4914 4671 7611 8846 
3580 8229 421 8630 5490 1397 3989 7102 3160 
4495 6941 2362 1688 5073 6481 684 7682 7357 
2877 966 3287 2806 1572 8016 2055 5386 3531 
1974 9510 800 8860 386 7816 6734 8076 4297 
7938 7603 7472 8197 1129 3271 5057 8618 5354 
6747 6346 7497 4022 6261 3841 5157 5318 6216 
7830 808 7877 2653 3437 2604 2003 6656 2175 
6240 8358 3001 4441 6942 5141 9895 1440 4349 
6541 5807 5539 8667 3833 654 1921 6702 30 
2419 7891 7620 5559 7977 2331 2077 9057 1489 
2869 3080 4572 6570 6945 9027 7499 8848 8782 
3430 8686 6459 4396 5560 3351 7081 6716 5513 
9317 3424 5637 5884 4483 2971 7587 9621 9797 
1630 3495 4298 2019 1554 6041 7907 867 6732 
3660 2238 2803 1165 4731 3188 7310 947 4968 
3432 8194 1877 2337 5960 9644 531 1449 8975 
2329 9299 6746 176 4016 9834 543 4185 1979 
8515 6166 8204 2590 3179 6393 256 1087 2465 
8710 9136 3049 1332 2268 1264 8785 1834 8377 
8078 5830 1367 1695 9220 1862 2160 3377 2908 
5961 8110 3107 2017 7094 6623 5151 6964 2287 
5308 1012 7717 156 5556 539 4416 2425 6045 
4233 3193 6802 9116 1202 450 6692 3962 1161 
9443 9399 1393 2757 5320 9489 8312 2755 6848 
7967 3529 4088 3280 3153 2190 5479 4958 2367 
3794 2601 6791 6231 7802 6028 1705 8007 2339 
9738 9472 7859 1484 1966 8734 3839 9904 6622 
5161 2515 2400 4878 5163 7150 6437 7086 7986 
5824 5634 72 9830 2509 208 8054 9671 2768 
8819 2777 2382 1683 5174 1735 1849 4738 4845 
4389 1878 2839 124 8602 7668 1039 7271 5606 
5477 4347 1682 1905 8451 2464 464 8071 4874 
8219 2772 3698 4436 8014 5698 3458 1048 7593 
8934 308 8680 8839 3796 5908 375 3992 209 
2388 6148 1186 3824 5979 5739 836 5166 9188 
7307 2733 5573 179 4744 7414 398 9123 4161 
1063 3407 4850 8717 587 9071 310 3451 182 
4760 7588 7783 6175 1228 5751 7509 6219 5972 
7448 5645 7314 6189 8897 7452 7715 7828 1928 
8881 2279 760 4736 4690 40 4365 4316 2173 
3540 5355 8045 7640 7632 3934 9613 5977 6267 
6701 2325 1131 1943 4975 5366 6546 1540 7169 
2879 1773 5864 949 4564 5612 9326 7421 9787 
7858 7812 2076 5950 7388 3321 7488 1096 3285 
2204 3549 1055 7564 2568 9138 4355 711 9403 
5543 5682 6303 5687 3307 6847 1802 5703 4682 
3922 5243 3933 2834 8843 149 9495 5672 7999 
8245 1591 6787 7678 674 2992 4419 6064 3177 
4676 8367 7444 8952 9300 2234 7268 710 9541 
8325 6898 8706 9086 416 785 8927 126 7921 
2099 5288 9915 1318 143 4713 3756 8450 363 
355 1563 3369 5085 2397 4366 5195 5193 8634 
516 1839 8715 3474 4002 8005 1154 1727 1299 
2451 8155 148 360 2729 26 7062 9633 4032 
6391 7780 9217 4067 2857 4553 8106 7374 3980 
8604 694 3730 4590 5954 3263 8234 7177 4610 
7181 8252 3305 6920 2417 194 1223 9427 5419 
6750 4732 6677 9929 2065 272 8754 593 3912 
6479 9581 6423 3725 865 3207 8146 2554 3928 
9142 8532 1755 2097 3205 749 6059 3279 5857 
1844 7131 8335 2902 6042 5877 5216 5983 3522 
4462 729 9976 4477 4219 9668 9257 82 8100 
3356 1110 4995 1122 6553 9918 140 9704 2811 
5046 6700 8343 8388 5222 5024 1842 7575 5399 
1801 3684 8505 2266 8642 2535 6467 3571 2858 
5410 5676 5577 7795 6814 1620 7210 7043 983 
6542 5859 5880 9955 4374 1403 7964 8573 5509 
1586 5571 285 429 1782 2143 3082 1450 5442 
6606 8109 239 6534 110 1797 4401 7011 9197 
3855 86 2309 7709 3574 4933 7163 2033 5165 
5660 7550 2764 7490 2923 6784 8294 6513 2432 
2641 1446 1714 4753 8074 9161 7771 3823 2014 
5323 3538 9338 1601 6383 6690 1845 376 5757 
9395 7263 5602 5242 6636 3005 6855 8183 7589 
1704 3211 4843 578 5842 6670 9662 6645 4164 
7424 7334 4023 7216 191 3913 8700 3861 5286 
8813 4614 3667 5480 5665 4085 4988 621 4804 
3143 1686 7803 8685 1551 6161 7309 1286 9392 
2715 5384 5802 1869 5313 21 5843 7736 9799 
2471 5250 939 226 849 863 6659 5022 3031 
7624 8317 6900 2381 4818 7264 6397 8979 7412 
7711 1729 150 9285 7889 3501 4257 7598 5514 
45 4155 8962 3347 9491 3729 1117 4021 6503 
107 1414 3598 4844 3554 2520 2349 73 4459 
4269 6033 2928 2095 697 5223 3132 6384 5300 
4983 8932 433 6415 9570 2750 1049 3176 4691 
3773 6477 2516 586 4979 3239 2390 8079 235 
5454 4084 2183 4255 9975 3764 2667 3988 4454 
704 9945 223 4055 8905 9268 6405 2221 2219 
9529 5653 4746 5625 8359 7681 1209 6087 2171 
1124 3479 4795 9879 5023 6549 2812 3421 1109 
4502 1198 4762 848 6309 8728 6994 2162 2473 
8622 1162 979 5805 7432 3523 5026 7135 7985 
6643 3691 3057 743 5691 3858 2360 1477 4204 
5284 9673 2539 7779 9807 8802 4291 6810 7406 
4987 7255 8298 8916 4311 1127 9565 1425 1251 
9277 8763 1230 5944 5553 7343 8908 9686 4050 
77 6922 7458 458 5456 4701 9056 6214 3762 
5605 624 4479 7730 4314 997 4607 6785 813 
6586 2237 952 9514 2068 2225 4710 8134 9831 
4146 387 4035 9930 7487 6253 3337 1570 1725 
6369 4546 2597 2408 3245 8136 5594 9318 2004 
5793 446 3127 1515 2754 8230 529 1282 6957 
9218 98 2585 2967 6402 7659 2416 2430 5551 
3675 7572 8982 4362 2881 8565 8639 5130 7157 
9714 8955 5201 6119 3221 1015 3957 1361 8613 
4428 9185 4962 8821 2459 8664 1291 2522 3364 
1490 7813 1532 6135 6655 8212 8804 7528 158 
5607 9333 3408 3584 1156 6996 9374 3966 6630 
4594 4308 1649 5679 7773 4959 4708 3157 5696 
2924 8635 5566 1870 9605 7103 8052 9068 1693 
9857 9854 9582 8889 471 6856 6249 8967 7719 
8389 1007 6023 581 4555 2079 7595 6521 2148 
6788 2831 8356 4469 8299 4837 7510 7521 5706 
9483 2642 5306 8731 3606 3362 2275 9198 8657 
3931 8255 7525 8148 5394 8603 358 4724 1463 
4617 4383 3373 2932 9723 4755 4318 8834 7615 
7732 2059 6850 4253 8454 6313 2934 7298 6533 
1247 3175 7925 3225 3457 6358 1811 6522 9375 
2282 4925 9699 332 9863 7324 4406 9594 165 
5329 574 6792 7926 7031 7973 237 7386 1472 
1883 1197 6866 5021 7119 501 7747 6703 7206 
6526 3618 7166 3807 5076 5773 9431 8545 8544 
4801 462 9262 9154 4178 7670 2763 2798 408 
1992 9266 4075 2647 4447 5617 3102 8224 7105 
5845 8671 8968 1896 3867 4784 3589 1130 8508 
419 6480 5852 1238 5447 1633 5428 1702 8485 
47 7016 1058 4456 1111 3633 4054 5861 9223 
7673 1369 6092 7847 4574 369 9211 864 1715 
6598 5168 4539 4920 9751 9342 1668 2549 7815 
4367 6518 8394 4393 8150 4826 5426 9020 5236 
121 9507 9066 6839 37 4457 1793 2957 9134 
9680 2125 3389 6196 3093 7832 2920 5957 1134 
3541 8606 5971 9880 8875 4192 802 846 6088 
244 956 5423 3353 6797 5711 7398 5784 8832 
1092 3588 9117 4584 1922 6077 7367 2393 9293 
9538 7516 38 8954 303 3086 5319 4526 8121 
4112 640 9998 1826 827 2317 6069 528 315 
6511 7695 7328 1881 1358 9406 7799 1581 6321 
364 5631 6905 1751 765 469 5893 134 2813 
799 493 2263 3028 3198 5249 2602 9411 3551 
371 647 1338 1761 2841 7250 8405 8841 6300 
5296 5834 2344 4124 4984 9323 9466 6061 8666 
4548 4332 8540 1840 5396 2241 7650 4306 6540 
8551 1073 9097 8907 6530 7325 5633 5968 319 
4394 6484 1785 4997 3352 5638 9460 9313 9606 
4450 4382 5936 7569 9547 5204 7845 2673 3228 
3450 2191 566 6072 5848 9775 169 6721 9 
9009 7513 1565 123 866 7041 2346 5475 8845 
7631 4264 3141 422 3300 2306 8787 7180 8035 
6298 2028 3209 3695 1142 573 284 8887 7818 