# vtk DataFile Version 4.2
Generated by LIGGGHTS
ASCII
DATASET POLYDATA
POINTS 10000 float
-0.0179762 0.00103601 -0.0369654 -0.0184708 0.00276869 -0.0367237 -0.0186621 0.00581669 -0.0366258 
-0.0186905 0.0076119 -0.0366014 -0.0178 0.00917082 -0.0366068 -0.0189696 0.012018 -0.036459 
-0.0180689 0.0138592 -0.0369122 -0.018861 0.0165494 -0.0365209 -0.0188567 0.0183495 -0.036524 
-0.021114 0.000933469 -0.0352594 -0.0195677 0.00118617 -0.0361428 -0.0200523 0.00289768 -0.0358789 
-0.0208618 0.00443115 -0.0354161 -0.0202227 0.00606763 -0.0357815 -0.0212721 0.0073887 -0.0351687 
-0.0200634 0.00851799 -0.0358721 -0.0193425 0.0101176 -0.0362662 -0.0178328 0.0104523 -0.0353459 
-0.0205191 0.0113112 -0.0356198 -0.0191003 0.0133534 -0.0352621 -0.0207746 0.0139761 -0.0354661 
-0.0209084 0.0157682 -0.0353839 -0.0193812 0.0148604 -0.0361992 -0.0202521 0.0173996 -0.0357631 
-0.0202547 0.0192016 -0.0357735 -0.0227152 0.000896662 -0.0342613 -0.0195007 0.000896691 -0.0343687 
-0.0204026 0.00244884 -0.0341723 -0.0184957 0.0022367 -0.0350158 -0.0220987 0.00282039 -0.0346562 
-0.019261 0.00390227 -0.0346138 -0.0219584 0.00569174 -0.0347458 -0.0201462 0.00542904 -0.0341026 
-0.0184283 0.0054714 -0.0348833 -0.0227889 0.00735755 -0.0342103 -0.0195602 0.00721453 -0.0345711 
-0.0177723 0.00708059 -0.0344387 -0.0219619 0.00908271 -0.0347472 -0.0203095 0.00981286 -0.0346483 
-0.0185467 0.00884549 -0.0349643 -0.0221239 0.0108678 -0.0346382 -0.0207628 0.0117925 -0.0339159 
-0.0190122 0.0116474 -0.0347017 -0.0221938 0.0126634 -0.034592 -0.022251 0.0144592 -0.0345616 
-0.0196491 0.0149167 -0.0344224 -0.0228999 0.0160771 -0.0341327 -0.0187274 0.0164295 -0.0347342 
-0.0217306 0.0179196 -0.0348848 -0.0227905 0.0192007 -0.0342034 -0.0206438 0.0192048 -0.034028 
-0.0186552 0.019203 -0.0349569 -0.0243909 0.000897863 -0.0330803 -0.0207453 0.000896106 -0.0330734 
-0.0178056 0.0011563 -0.0337628 -0.023553 0.00236996 -0.0336833 -0.0217618 0.00236913 -0.0329513 
-0.0191703 0.00314469 -0.0329864 -0.0175665 0.00316556 -0.0337956 -0.0251167 0.00412342 -0.0325298 
-0.0236733 0.00415763 -0.0336046 -0.0214826 0.00425001 -0.0337467 -0.0186852 0.00488354 -0.0332082 
-0.0244303 0.00571174 -0.0330592 -0.022596 0.005491 -0.0330819 -0.024247 0.00754869 -0.0331926 
-0.0212395 0.00663756 -0.0333395 -0.0193404 0.00654041 -0.032915 -0.0222322 0.0081947 -0.0327213 
-0.0207059 0.008308 -0.0337273 -0.0249401 0.00922299 -0.0326793 -0.0234406 0.00905853 -0.0337349 
-0.0218573 0.00989328 -0.0331495 -0.0191498 0.00892348 -0.0330846 -0.023617 0.0109437 -0.0336412 
-0.0201524 0.0104062 -0.0329578 -0.0183612 0.0104932 -0.0334498 -0.0226044 0.0121928 -0.0328338 
-0.0192592 0.0119631 -0.0329498 -0.0242145 0.0128979 -0.0332117 -0.0206157 0.0135688 -0.0337256 
-0.0188251 0.0136175 -0.0334955 -0.0237302 0.0145947 -0.0335479 -0.0221439 0.0139303 -0.0328548 
-0.0211354 0.0155278 -0.0336162 -0.0176368 0.0152256 -0.0337855 -0.0246794 0.0161413 -0.0328741 
-0.0217715 0.0171712 -0.03325 -0.0183614 0.0168553 -0.0329386 -0.0237614 0.0175314 -0.0335416 
-0.0195506 0.0177908 -0.0339025 -0.0242643 0.0192094 -0.033178 -0.0186828 0.0192012 -0.0331617 
-0.0263692 0.00108549 -0.0315256 -0.022671 0.000896696 -0.0324698 -0.0190427 0.000896807 -0.0324972 
-0.025265 0.00233185 -0.0324162 -0.0235182 0.00249009 -0.0318983 -0.0202814 0.00220681 -0.0319302 
-0.0177288 0.00228872 -0.0322445 -0.0224515 0.00388492 -0.032284 -0.026376 0.00493112 -0.0315297 
-0.0235576 0.00512341 -0.0316103 -0.0205077 0.00409149 -0.0322479 -0.0186302 0.00413084 -0.031581 
-0.0213969 0.00560988 -0.0317531 -0.0249905 0.00680491 -0.031751 -0.0228648 0.00676325 -0.0318475 
-0.0262162 0.00810946 -0.031654 -0.0238143 0.00829138 -0.0316192 -0.0206663 0.00768785 -0.0319989 
-0.0233671 0.00993966 -0.0321757 -0.0183601 0.00989198 -0.0317134 -0.0264196 0.0111999 -0.0314844 
-0.0248856 0.0112574 -0.0324136 -0.0218618 0.0109874 -0.0317277 -0.0175544 0.0121526 -0.03232 
-0.0257662 0.0127759 -0.0320302 -0.0241118 0.0134079 -0.0314917 -0.0209238 0.0125198 -0.0322859 
-0.019324 0.0132513 -0.0317058 -0.0254476 0.0145295 -0.0322753 -0.0205723 0.0144519 -0.0321666 
-0.0239392 0.0151944 -0.0315536 -0.0224572 0.0157335 -0.0324148 -0.0189911 0.0151715 -0.0326078 
-0.0260743 0.0164445 -0.0317779 -0.020152 0.016683 -0.032622 -0.0248735 0.0177562 -0.0321161 
-0.0214822 0.0176532 -0.0315152 -0.0195729 0.0182395 -0.0319327 -0.0259114 0.019206 -0.0319093 
-0.0239398 0.0192048 -0.0314191 -0.0226889 0.0185335 -0.0325136 -0.021044 0.0192085 -0.0322866 
-0.0278185 0.000935889 -0.0302623 -0.0245551 0.00094423 -0.0312905 -0.0213263 0.00089516 -0.0312833 
-0.0195997 0.000897341 -0.0307971 -0.0178068 0.000891535 -0.0311279 -0.0271401 0.00266569 -0.0308655 
-0.0253759 0.00240628 -0.0306173 -0.0218646 0.00260324 -0.0311733 -0.018808 0.00250895 -0.0308287 
-0.0261709 0.00394826 -0.0300481 -0.0244639 0.0039548 -0.0305976 -0.0203323 0.00342645 -0.0305904 
-0.0280301 0.00403755 -0.0300653 -0.0225541 0.00412327 -0.0305064 -0.0254571 0.00586443 -0.0303043 
-0.0237079 0.00635506 -0.0303186 -0.0196628 0.00557296 -0.0312903 -0.0269564 0.00659547 -0.0310301 
-0.0210075 0.0067258 -0.0303999 -0.0182536 0.00668223 -0.0312768 -0.0248272 0.00775398 -0.0302401 
-0.0224943 0.00777372 -0.030407 -0.0205954 0.00847582 -0.0303831 -0.0190704 0.00827186 -0.031413 
-0.0280827 0.00890884 -0.0300159 -0.026584 0.00959252 -0.0307173 -0.0247832 0.00999572 -0.0310752 
-0.0219527 0.00924611 -0.0312871 -0.0203229 0.0100484 -0.0312104 -0.0232271 0.0107489 -0.0305846 
-0.0277389 0.0123142 -0.0303294 -0.0246073 0.0118919 -0.0306702 -0.0226929 0.0124106 -0.0310134 
-0.0188604 0.0115501 -0.0312472 -0.0256368 0.0133281 -0.0303342 -0.0210648 0.0130369 -0.0305743 
-0.0178235 0.0129939 -0.0307546 -0.0272537 0.0139914 -0.0307638 -0.0225168 0.0141935 -0.0311226 
-0.018918 0.0147079 -0.0307425 -0.027529 0.0159727 -0.0305206 -0.0258683 0.0151241 -0.0305746 
-0.0226803 0.015891 -0.0304802 -0.0210706 0.0159259 -0.031277 -0.024676 0.0166222 -0.0306631 
-0.0189485 0.0164085 -0.0313076 -0.0270772 0.0176645 -0.0309296 -0.0232204 0.0175962 -0.0310649 
-0.0175895 0.0173345 -0.0305882 -0.0265134 0.0192079 -0.0302217 -0.0222211 0.0192006 -0.0308834 
-0.0204466 0.019206 -0.0305974 -0.0183497 0.0192014 -0.0310297 -0.0293431 0.000897868 -0.0287835 
-0.0259002 0.000895871 -0.0297993 -0.0242203 0.000936939 -0.0291557 -0.0227217 0.000895185 -0.0301529 
-0.0205912 0.000935268 -0.0293069 -0.0184203 0.000900138 -0.0294422 -0.028622 0.00243033 -0.0294988 
-0.0265078 0.0024465 -0.0291271 -0.0236494 0.00243185 -0.0301146 -0.0218103 0.00225342 -0.0294161 
-0.0173924 0.00250511 -0.0297241 -0.0248702 0.00318296 -0.0290238 -0.0186853 0.00401974 -0.0297914 
-0.0237436 0.00490779 -0.0292521 -0.0202168 0.00497633 -0.0296901 -0.0288179 0.00552071 -0.0293151 
-0.0270352 0.00579368 -0.029424 -0.0222368 0.00587747 -0.029401 -0.018445 0.00577394 -0.0294601 
-0.0282317 0.00712674 -0.0298747 -0.0193444 0.00724873 -0.0299634 -0.0265781 0.00793456 -0.0298955 
-0.0178073 0.00818072 -0.0299518 -0.0236563 0.00909702 -0.0300083 -0.0223774 0.0100379 -0.0291761 
-0.0206056 0.0100212 -0.0294404 -0.0190261 0.00949285 -0.0300984 -0.0283774 0.0106872 -0.029735 
-0.0267873 0.0101757 -0.0290321 -0.0249044 0.0104591 -0.0293504 -0.029261 0.0120554 -0.0288707 
-0.0261496 0.0116839 -0.0297764 -0.0230902 0.0116849 -0.0290588 -0.0215844 0.0114165 -0.0300063 
-0.0198724 0.0119297 -0.0298193 -0.0181173 0.0117641 -0.0294756 -0.0267455 0.0133682 -0.0289262 
-0.0245697 0.0127047 -0.029031 -0.0228997 0.0134484 -0.0295377 -0.0285592 0.0137183 -0.0295556 
-0.0243091 0.014468 -0.0299616 -0.0212457 0.0147129 -0.0299694 -0.0198021 0.0137473 -0.0295125 
-0.0180435 0.014052 -0.0293151 -0.0289188 0.0154506 -0.0292078 -0.027001 0.0151431 -0.0290187 
-0.024608 0.0159499 -0.028998 -0.0200026 0.0159961 -0.0298211 -0.018218 0.0159259 -0.0296253 
-0.026647 0.017046 -0.0293075 -0.0233403 0.0171875 -0.0293131 -0.0216172 0.0162238 -0.0290726 
-0.0283859 0.0174338 -0.029727 -0.025021 0.0176908 -0.028913 -0.0217412 0.0178822 -0.0297533 
-0.0195762 0.0176879 -0.0302214 -0.0285829 0.0192055 -0.0295377 -0.0247624 0.0192046 -0.0298341 
-0.023054 0.0190373 -0.0292963 -0.0191288 0.0192037 -0.0293682 -0.0305703 0.000898683 -0.0274711 
-0.0272272 0.000897301 -0.0285723 -0.0255584 0.000897048 -0.0279281 -0.0223665 0.000894172 -0.0283882 
-0.0299532 0.00246253 -0.0281416 -0.0278128 0.00245582 -0.0278943 -0.0234243 0.00235434 -0.0283408 
-0.0189732 0.00250761 -0.0288692 -0.0289534 0.00390636 -0.0285282 -0.0224244 0.00379862 -0.028745 
-0.0206068 0.00344394 -0.0288195 -0.0175885 0.00372751 -0.0283988 -0.0300751 0.00521327 -0.0280134 
-0.0271089 0.00422906 -0.0285412 -0.0254686 0.00497359 -0.0287549 -0.0212189 0.00501367 -0.0281982 
-0.0192546 0.0046521 -0.0282068 -0.0283213 0.00540366 -0.0276011 -0.0201502 0.00640419 -0.0285992 
-0.0305735 0.00685104 -0.0274718 -0.0289502 0.00695996 -0.0282385 -0.0257332 0.00683487 -0.0287541 
-0.0239704 0.00717247 -0.0287483 -0.0184054 0.00741227 -0.0284414 -0.0298616 0.00853277 -0.0282455 
-0.0273873 0.00784694 -0.0282989 -0.0252875 0.00877825 -0.0288476 -0.0235775 0.00884729 -0.0282322 
-0.0219452 0.00830079 -0.0287771 -0.0201541 0.00820462 -0.0286592 -0.028288 0.00947592 -0.0283284 
-0.0186825 0.0091947 -0.0283562 -0.0302141 0.0109251 -0.0278555 -0.021344 0.0112077 -0.0282024 
-0.019381 0.0108822 -0.0284479 -0.0176361 0.0106367 -0.0280957 -0.0275065 0.0117753 -0.0286047 
-0.02556 0.0115402 -0.0280829 -0.0278944 0.0132004 -0.0275597 -0.0219961 0.0128772 -0.0281016 
-0.0202272 0.0126086 -0.0281971 -0.0297917 0.0141356 -0.0283131 -0.0253056 0.0143678 -0.0284803 
-0.02361 0.0137284 -0.0279072 -0.0212378 0.0145037 -0.0281887 -0.0302851 0.0157869 -0.0277951 
-0.0282955 0.0149466 -0.0276025 -0.0230204 0.0151194 -0.0288835 -0.0173837 0.0158816 -0.0280372 
-0.0279834 0.0166128 -0.0281864 -0.0262825 0.01621 -0.0277657 -0.0192713 0.0161462 -0.0281844 
-0.0296525 0.0173265 -0.0284629 -0.0222391 0.0179573 -0.0280274 -0.0203751 0.0175008 -0.0286229 
[...]
POINT_DATA 10000
FIELD FieldData 7
id 1 10000 int
9285 9968 9556 9613 6520 9620 9639 7579 8074 
6501 1245 9884 6289 7012 8685 9511 8004 6577 
9834 9572 9316 5500 9243 6911 6163 9783 4232 
9832 4615 9545 9852 5055 9627 9638 8158 4815 
3180 9229 7310 7331 6022 5428 4966 5025 5420 
9825 6385 8026 6259 5034 6505 8946 7835 9948 
9567 7811 9871 9693 7626 7979 5284 9906 1850 
8385 7421 5434 9575 6058 6411 5072 9410 8976 
5519 9069 9550 5053 9521 6450 7495 8099 9765 
2235 8612 7021 2821 5196 9846 8203 9855 9544 
9118 6394 9376 9903 6031 9604 6760 9857 3735 
6142 8756 9539 9500 6265 4298 4775 9281 7051 
9156 6449 9458 6386 1567 1698 9088 9844 7440 
5408 7498 6116 8106 7855 7485 8761 7233 4336 
7484 3917 7372 7379 7600 8006 7873 7084 8195 
3896 9914 6955 6279 2841 9326 7720 6484 4572 
5346 8566 9479 6748 6554 5193 8348 2376 9873 
6043 167 7052 780 9220 5021 9913 9234 7894 
7897 5814 2912 7058 5765 8828 5613 8952 1441 
9564 9619 5774 3588 9559 8812 6699 4115 8632 
3768 9943 4261 1783 8257 5427 2652 4945 7628 
9282 8352 2567 3540 5791 7386 9981 8441 4054 
5283 8287 5730 6283 2213 5274 7291 5440 3998 
4582 2269 6013 6975 9842 2363 1367 3943 9838 
8913 6479 9565 6762 5423 7888 5096 8758 7770 
5471 7119 7576 9553 4165 6048 2299 9696 7149 
9972 5903 992 5301 6552 6495 6409 8771 1853 
7584 7189 5132 4807 8582 5965 3413 7573 8637 
8424 9675 296 2520 9757 5255 7477 4846 9652 
6899 5638 3080 4921 7587 8141 8184 6034 8931 
4043 5086 8873 6146 9967 2215 30 1229 9364 
2983 8421 7388 4059 4412 8965 8579 5969 183 
3542 9863 7642 8877 9921 7318 9590 9998 1897 
8372 9945 33 8373 6958 398 2722 7361 6602 
5249 4078 6077 2482 9944 5836 666 1368 8428 
4141 9610 9957 2638 3034 2396 9804 6162 5103 
6618 6023 8292 9915 9098 6403 433 1870 8577 
6367 8400 90 9480 5922 7433 676 4450 9551 
8590 7707 7180 4668 1449 5928 1052 9800 8496 
3762 3415 337 7171 8493 3940 9731 6866 7235 
799 5678 6906 9687 8615 9406 1585 8452 5850 
8444 7702 746 7500 9952 3186 4754 1799 9898 
9724 9084 5782 4107 571 4592 876 8772 7005 
3001 1636 541 5464 9147 6172 1417 3336 3730 
7371 4951 8377 4521 999 3021 9259 707 733 
8207 8711 9937 6062 9299 9759 9472 4424 4310 
2977 9264 1700 8434 4061 9633 7260 5406 7223 
7590 9261 9805 1159 5140 2474 2515 9831 6318 
3719 3200 6201 2894 7983 865 1313 6235 8867 
6067 4249 3938 6802 911 9941 6369 3731 1899 
1226 9758 9580 5870 7193 65 1219 6098 9747 
2241 2512 2569 6874 368 9938 3991 4789 727 
633 5640 501 7239 67 5116 4378 2369 521 
2091 9626 7568 6114 4487 5409 9246 1965 3337 
5666 5532 7391 9074 5111 7170 5205 1956 6085 
2685 7691 6549 1923 4495 9934 5983 9586 770 
1641 9965 9402 879 3382 132 5429 310 6068 
6974 4358 4320 9524 6381 6608 9694 9780 2759 
98 464 6697 5769 8236 4542 9233 3039 3139 
7111 8881 186 7736 6977 750 3088 4329 8824 
9732 4459 4209 6474 9120 9920 9702 1133 9661 
8410 538 2183 5127 4168 615 2362 1210 4890 
8215 8364 2502 4339 8622 1263 9390 2597 3376 
8518 7943 1740 4690 3118 6814 3628 2252 1138 
7439 6088 2005 1769 4047 9644 6299 4567 104 
9401 2718 9148 3384 9548 3331 5122 1620 881 
4197 20 4731 851 3637 1464 58 2578 6459 
4723 1283 6943 2820 8810 1713 9439 9753 4265 
3827 5030 7946 274 2175 9557 3604 3414 5976 
6828 1608 1719 158 376 7505 3808 8729 5404 
1431 2599 8786 9537 5102 4952 400 418 9607 
6432 6134 515 2660 7892 8000 8669 6537 9272 
4915 9881 8002 535 3798 9124 5186 9912 7967 
3685 8701 5786 5204 165 1222 488 5069 7438 
3463 9791 9741 7551 6912 84 1048 308 6809 
5457 8217 3987 7636 8201 4936 1854 8532 6872 
8687 9591 9142 7164 2672 4498 5604 956 1397 
315 9736 6210 5385 5157 4442 6007 3926 6626 
8713 7974 6717 2518 1638 1770 7093 7632 4877 
3008 9723 6193 1381 3184 4177 2297 6557 9378 
5558 6372 9601 8623 505 8401 6424 6823 5143 
313 4308 2073 9743 6723 2879 3109 9896 9618 
6865 6850 7951 3867 9681 9751 9826 1319 5316 
5265 9909 1692 4906 9922 5123 7283 4451 8075 
8324 7535 9532 4398 3513 2863 852 5787 6213 
8794 5417 8744 9328 1254 446 3831 6030 7795 
6903 6271 1308 1699 7723 5189 2926 831 3229 
470 7349 5577 5327 6969 9714 4324 4362 8189 
9245 8800 8504 2278 1693 3459 3834 9055 5790 
4003 2146 4570 5314 7865 6465 8571 412 6746 
6716 6696 7413 3812 4394 218 9850 8872 2904 
503 7217 9752 8541 2552 7132 8458 4598 9534 
9036 3687 6337 1524 56 9262 8837 7124 7896 
4018 6596 1672 5085 7336 4758 9092 7747 9955 
8876 4255 2400 6786 6570 4105 3056 6212 9991 
8934 5948 3712 346 2694 8830 9653 8933 7730 
1547 9343 7819 2726 1891 7114 7057 8625 4710 
795 923 2468 8631 6207 5906 9690 9552 1351 
563 9199 5134 6584 9494 8009 2466 1443 1343 
5579 9593 5326 755 277 9854 7520 7380 2045 
4392 6947 8221 7939 962 1789 8941 8359 5843 
1724 5990 2412 7653 4981 5091 8692 8198 3057 
9528 4670 1295 5512 9212 1148 3302 7201 9862 
8508 5591 9973 6044 1208 9939 1428 1355 8964 
9733 1851 975 5149 5646 1302 887 3425 2716 
6765 9100 9574 5393 5179 2082 3996 6 792 
9716 3213 7428 72 294 5862 9614 7367 8461 
4291 2456 6727 9527 7910 9946 3851 1742 2375 
9597 9416 2464 1901 4536 69 1826 6496 7769 
5087 8022 247 1877 6543 9012 8011 1780 1298 
912 740 2410 599 6493 5590 9888 8818 4858 
1832 686 5288 9814 5405 9477 1099 8788 5884 
649 1085 4055 7346 9995 6003 2965 2589 2727 
6684 8747 4172 500 177 7586 9082 9798 7667 
6310 2155 9462 4757 8133 6766 9641 7793 1747 
8482 5300 9465 8665 9219 9362 8608 497 6688 
837 8912 9869 8393 1925 3112 7449 8243 8456 
1995 6373 38 1726 115 9828 7969 6004 1105 
9237 802 694 5890 5131 6457 2061 3140 9459 
8846 9255 6536 2952 4753 9151 221 9707 7569 
9748 6046 3923 2573 5141 2498 201 724 3927 
5299 9595 6718 8101 4961 6672 3682 4641 3504 
9762 6473 7352 1634 1745 9766 1937 749 1062 
9571 5702 3534 3995 4862 4943 6648 7766 5094 
1860 2057 7116 7961 6637 5955 7934 5626 378 
1835 4331 9976 7575 9927 3678 572 2990 1056 
7226 8853 2196 1356 4627 9764 9700 964 9984 
9602 5659 5496 1405 4178 4257 8745 3884 8649 
1873 2361 2025 3907 240 9419 7221 7984 5388 
3883 4100 6756 7534 9161 1670 3852 2174 4196 
5036 9725 7360 9134 8817 6740 1439 786 5281 
5896 9189 9623 4984 3046 4676 4428 8958 9570 
8517 5371 4195 1149 1493 9576 8584 819 3341 
7877 6728 9493 682 4547 2909 2571 9562 6346 
2865 2746 9309 7914 9583 9891 1845 1950 3484 
7854 9202 4633 2745 3925 8390 7120 9649 2026 
4893 7502 6936 8266 9464 805 1482 4032 9987 
5886 9742 6750 1184 4612 5842 8678 8337 2184 
4523 2918 6574 9932 9367 9616 1599 3854 4957 
7183 9568 8457 2408 436 4923 6443 6463 7950 
7566 1285 580 3581 3591 9776 5374 9667 8003 
1155 1498 196 545 2143 3105 3115 5475 7055 
7937 7690 8354 3495 2860 8435 2708 9835 5291 
7895 5942 618 3121 2470 7891 395 5517 2653 
4796 2407 7259 5618 5713 8059 569 1260 4531 
4942 6559 8992 757 9228 2673 9136 9889 9566 
5737 5954 7492 3477 1858 9070 9964 2506 2784 
636 3651 5848 6572 8823 2029 4608 8865 2431 
7625 9951 8864 7788 3524 1534 5181 9647 9847 
5486 3601 7954 4743 8193 8562 9664 6954 7798 
903 2651 9498 5505 1643 1163 413 5188 5493 
8296 1025 2984 4254 4902 7771 8720 7834 9127 
2973 2665 5565 8802 3058 7761 1730 1592 8491 
2602 6511 9637 7593 7029 3636 6075 4211 1495 
3707 2920 6667 5673 7173 8731 7915 8272 3718 
8042 8139 8762 5120 7250 7821 2690 1007 1802 
9730 9515 5812 3562 3788 6880 9632 2830 5520 
9768 6165 2553 1451 2621 8636 9874 5114 6601 
2395 4768 1027 7444 8380 3586 1097 9907 6028 
2950 2771 1172 1862 1238 7469 8166 1628 2792 
3886 8531 5552 3264 1941 713 4371 9107 8672 
9739 5155 7298 2440 8748 9277 1618 6803 526 
3701 4090 231 8776 9266 6417 76 3202 4728 
3066 9631 5275 7651 1444 429 8233 719 6147 
1733 833 340 258 2583 7712 9925 7373 8278 
4438 4693 2522 9027 8782 9775 4333 3700 113 
6247 814 1281 4837 2964 4963 9041 5199 2050 
711 2325 6353 5383 6662 6613 9917 4041 1108 
1167 7869 7117 6281 8510 1711 1348 5226 6925 
6429 8592 317 393 2738 4159 8484 9899 7016 
4448 116 9848 5936 9770 9975 702 874 2796 
6099 3321 5293 8879 8355 4983 4544 4351 7541 
7621 9986 5437 6979 1160 1357 4001 4098 212 
6649 6661 6885 6131 3124 6542 9763 7416 49 
48 1458 8311 7086 8902 5710 120 2486 7683 
7531 3198 1807 2350 1268 8172 8240 4992 6187 
7673 8072 3832 4666 2809 3368 735 7297 9542 
9722 6558 5924 6959 6328 9785 6436 2042 9427 
6051 7733 6564 2493 2300 2247 6610 7269 6426 
1584 3785 8389 9133 9061 7948 8212 4782 319 
8663 7827 9677 9271 9806 1041 4278 4469 8012 
9517 2986 7529 8288 2086 4662 7038 6973 6580 
53 3624 8545 6794 7370 8796 6938 3209 966 
2461 3558 5527 8707 3648 472 1445 1385 2059 
6799 7194 3282 1198 3026 325 8084 9205 7976 
6990 8165 7792 3541 8970 4611 29 6811 5315 
4707 4280 4465 2846 6110 9165 5298 6222 7963 
4589 2272 1836 6741 3000 9174 2988 324 2629 
7612 890 6668 7241 6744 3737 5267 2633 125 
3619 6738 9837 5008 6831 3427 2172 4335 8140 
6645 4997 6049 8103 3805 2094 1289 1843 9836 
5688 7947 8473 7393 2246 9474 3814 2731 191 
6780 5167 9506 663 938 4889 6490 9540 9445 
8213 1036 547 1560 1327 7645 8535 6607 3367 
6070 7901 8675 2129 2880 3773 2495 3448 9104 
9505 7049 9919 3662 8032 6181 7022 5718 9585 
3813 863 3953 366 397 9786 7748 551 2234 
785 3029 9207 7272 5916 8155 9257 1872 2198 
9880 5378 8597 8261 462 4762 5544 9475 7641 
4268 7088 588 7420 8269 6065 6482 8403 9146 
5857 2774 3161 4352 9288 8362 6879 764 2732 
5302 7972 5690 3733 4759 5367 4938 9634 5258 
9599 5644 2056 1246 6251 1751 5887 6616 9718 
7595 7884 8089 1291 7809 4189 3217 5045 9089 
7390 8523 8237 5715 4861 8083 9990 7935 2179 
2837 506 6659 882 5894 3445 1542 8160 7536 
6562 9598 1264 4727 2780 2191 1540 5379 8558 
4543 3879 3250 6129 9588 7874 3780 902 1743 
2925 4269 4898 9792 6026 2885 1822 3668 4557 
1423 1132 6839 8634 7351 4429 4464 2741 6433 
6897 9372 1986 4729 8620 7639 4360 6171 6017 
8624 9407 5900 8379 3935 1887 1934 342 6675 
9969 8197 4672 475 407 6893 7150 8007 3220 
4415 1656 8650 7494 9824 7134 5619 3634 2446 
469 5364 9573 7713 9738 6821 2627 4933 4993 
2330 9311 7003 7266 6275 5285 7070 4614 5751 
7032 199 8081 8289 3211 2224 5785 5499 6376 
2586 760 304 8506 5574 5864 1564 2262 4843 
9217 7956 4191 379 972 1622 9923 9154 9617 
9447 9057 651 4732 2385 2580 9878 6737 6956 
619 4496 4279 5639 6024 6390 5225 9679 5372 
5839 4950 3695 7265 9221 4295 963 9399 6944 
9393 4390 1815 4894 3679 4447 7682 5425 6941 
6804 2041 4135 925 4653 6522 8168 5270 8286 
7912 6128 4681 718 1432 8559 7175 9720 6764 
5525 653 7195 2357 896 5074 1188 8986 8062 
8827 5716 6200 5736 1265 1353 8253 6055 6402 
9508 7684 7840 1893 2682 8726 8465 6018 6093 
6397 5035 7060 4441 2212 5242 8375 5729 5664 
7629 4809 7841 4386 3085 7334 9829 6477 6339 
8052 2540 3710 3937 7302 6121 8408 5081 1837 
4367 9206 5221 8273 5548 1080 338 616 5037 
6301 7563 45 7847 229 3297 1314 4958 6779 
7315 6635 1203 3280 5335 9238 5329 8306 3310 
3256 3526 9820 7968 5818 7514 2650 693 2542 
5888 7924 7152 7945 9809 8143 9428 4913 2168 
626 8227 5418 9918 2273 5616 6312 9490 5663 
228 2570 9596 9819 6364 5634 2956 282 4516 
7376 5013 9523 5472 7461 3527 179 5573 6388 
6282 8630 1794 3375 1737 7824 8784 6878 8046 
6620 5444 2649 96 4467 8209 9666 5137 7755 
9029 6076 6619 6202 2098 4267 123 6999 5705 
5783 8547 7292 7633 3657 7685 3304 3285 5182 
8358 6199 9908 7286 5982 7136 6924 8814 2992 
5324 9064 6617 8481 6743 9269 478 3263 4956 
8668 1084 7108 5964 8208 4471 2229 8350 8080 
7378 3970 171 390 3366 5387 9799 9516 5002 
1806 5400 7437 8708 9993 6663 4580 2795 1630 
6384 3911 4408 5826 9060 8643 9577 7043 386 
91 9761 8792 5268 7294 8717 6297 39 3466 
8875 9383 8847 391 4934 1288 7917 6408 957 
1455 3022 8063 7220 2180 5130 4779 747 696 
5623 9059 5833 8860 6615 7102 4374 6278 9121 
5999 7829 7219 5007 2033 4813 1859 7253 720 
3901 9960 8780 5937 3468 969 1663 9249 5187 
8593 6345 8733 2378 4288 3237 5566 5699 3068 
2838 2332 1470 7306 6761 6909 3131 2941 1480 
8185 6118 7772 3166 2148 4960 3492 9035 7965 
6703 6859 6341 3660 8737 9514 9956 5248 6158 
4345 4882 1174 7126 1349 4142 1205 2982 7218 
6846 4946 7251 2381 27 4561 4838 7295 6882 
6704 6488 7711 4361 2953 3486 1715 9603 7570 
631 532 3372 4522 5176 7846 6638 8954 1741 
1354 8093 9870 7614 7555 4094 4136 454 6182 
5201 7978 2427 1522 9815 6412 7341 9657 8330 
8957 3281 420 555 7472 3090 1297 3488 1486 
9858 4285 5561 6708 8476 4321 3312 4325 4034 
6870 9890 5521 893 9512 8489 9563 9051 8991 
3898 5907 1410 7278 5742 6711 6211 6133 7397 
7991 4785 3781 6041 5524 187 3005 9346 5637 
5171 9547 9236 6789 6516 8291 7106 8530 1448 
8205 5603 1021 7104 4735 6221 8049 6371 7276 
8413 3012 4418 164 778 8451 9822 7982 8339 
3888 3913 4296 6020 6807 6389 6515 6940 2625 
1344 5209 5060 9749 5237 6480 8471 35 8524 
6445 7011 8714 4277 365 4823 3729 6694 9672 
5210 5674 3986 271 5065 8219 9612 6387 6842 
648 486 669 9329 8626 5939 6961 1129 7311 
2301 480 1655 8092 7721 7578 7763 5743 8647 
182 6774 5432 2778 6140 6849 9138 5183 725 
1211 5462 9452 7025 5813 8066 4822 4302 97 
4137 1047 8919 9247 3977 3877 583 8463 9525 
9095 7257 5403 978 6729 858 7952 9279 1804 
5113 2749 2337 6392 3381 6290 9839 3555 1525 
6771 2840 6363 9066 7089 9813 5669 880 1632 
2109 281 9655 9409 5958 7159 643 9856 3183 
2954 5287 1364 4816 6091 9708 7539 8734 5576 
5683 2037 9830 9077 8419 7993 8054 6898 6285 
443 188 556 4103 8202 6420 3971 4562 1178 
9387 285 3544 8301 6196 9988 5587 3989 3646 
2063 4183 5949 5806 6739 1040 3409 9897 6321 
3333 9050 2463 8888 8056 7617 4955 5234 6937 
6270 6932 845 6322 3749 9038 1331 3882 9697 
2898 1707 5641 8047 3317 3551 2344 102 1438 
6112 4044 7099 9606 2126 3315 3242 7074 3182 
4417 3255 1251 6444 5992 6568 8094 2316 7890 
1653 9710 567 2848 230 3789 3964 7603 3607 
8972 2949 6123 2497 4306 1225 2165 7451 9746 
5331 5595 5276 8857 138 8344 2775 3203 4095 
6506 5397 1320 2021 1915 3778 2276 6930 8855 
1336 40 1955 5635 6957 9454 5119 7833 9467 
8945 9787 8498 1054 8079 1867 6721 4131 7734 
9628 3703 4683 6478 7545 6933 7701 4430 6066 
1987 1684 1002 4323 612 9767 3739 8893 4830 
1978 6287 7808 6674 9497 3233 2441 1488 8555 
8034 3621 9052 5052 1176 8445 3676 5847 6768 
6106 6986 5759 4808 4886 7001 8641 6351 9691 
8161 5259 7955 6935 6219 5981 5178 7028 5940 
5740 7558 9779 4060 6215 427 4194 3828 6102 
5211 9640 6063 5250 6805 5349 6981 8416 9660 
5105 593 5874 3395 8959 8073 895 7299 6308 
9961 6531 5022 4122 1517 9740 8312 6971 8323 
7254 4780 7356 9807 9417 7745 8840 5881 7073 
1128 9231 9643 5898 9260 1924 374 2852 8811 
6292 9678 9781 8432 6810 8109 3830 1450 9983 
9904 8220 5921 5305 7987 540 6646 9887 7340 
7611 8388 3732 5692 6801 6832 5410 6025 6230 
5109 8247 7137 8283 7243 5266 6904 7033 1508 
7009 8192 512 5463 5031 2487 5239 59 8262 
7764 7694 5049 7383 6241 5607 5998 8381 8540 
2472 7530 5831 6006 7975 6527 6916 8943 5910 
5436 6566 8985 9744 7489 5514 3835 9541 7875 
5005 9226 9423 1902 9843 9101 298 8345 1169 
4470 9901 5805 8682 6598 4953 5093 7643 5933 
3665 6742 8843 9840 2623 7774 6327 5491 6609 
5469 7374 8889 7141 5905 6710 6218 5714 8098 
7447 6644 4384 7870 5733 7806 6600 1594 7882 
5594 5650 8878 9149 8349 6693 2137 8065 9929 
5044 6653 8736 7227 3547 7523 8544 3630 8950 
9958 7075 9796 5947 6366 8900 1757 7369 2767 
8600 6160 7751 8727 3278 5051 6689 8254 9385 
6678 9441 4978 7213 6350 5854 7317 7238 7422 
3779 7986 7153 9605 8117 9068 6494 672 7729 
9935 9159 5985 9670 8611 6294 7513 5967 9727 
7624 9989 8856 9167 9535 9706 5153 6733 6149 
7354 5569 7836 5727 9609 9695 6074 6877 4654 
4353 8997 6707 7401 6657 6521 8300 6089 3858 
8238 8069 6901 7176 5294 9868 5338 9412 7623 
9721 2663 2935 9674 9518 9999 5487 6084 5231 
6753 5755 8010 9019 5746 1476 8466 6524 6997 
5609 8460 7313 5172 6964 4097 9188 5494 6848 
6423 10000 9306 7301 7703 7646 9025 7797 6452 
6713 836 5660 2453 2122 5217 8295 6800 9422 
2993 7056 7247 6873 3222 2981 5126 9394 5781 
7419 5700 6192 7509 7631 6378 6509 6824 9463 
5557 8760 9331 8008 8371 66 8610 9280 7122 
7640 9180 9867 8937 8791 8487 6773 5797 2031 
9910 6508 9437 5254 8276 5584 9866 7305 2315 
9892 6614 9992 1648 9004 7198 6458 2469 5019 
9996 9009 2090 8944 6862 9849 3799 3593 7681 
6083 7606 9611 8691 8604 7674 8097 8459 7760 
9979 9344 8447 7988 8430 6467 9900 8436 9713 
8861 7671 7019 9468 7395 4974 9063 7863 8826 
2153 6923 5810 9122 9665 4201 6892 5808 6054 
9360 5902 7244 8018 8118 8475 6965 7518 5041 
9303 7215 9802 9099 7231 6624 7820 7810 8280 
9308 7794 3777 7281 7069 8267 6895 8956 8554 
8507 8228 7757 6777 5317 8858 7496 6246 5101 
9078 7097 8325 8979 6630 3924 7048 9587 5062 
7916 8024 8533 3881 8061 8785 5761 8411 5207 
5448 7036 4761 4941 5588 8891 8275 4986 9974 
5625 5078 6535 9499 5744 8645 5360 9818 5263 
5668 9357 9994 6227 4881 9669 9108 4058 4546 
5851 6298 8948 5694 7303 7130 6217 8768 9668 
9294 6330 7274 2327 9197 8511 6875 5059 7768 
6483 61 5449 4998 8314 7692 7296 5336 3603 
3713 9102 7998 9682 9347 6593 7168 6156 8477 
8702 6138 8563 9793 7842 5728 7789 9760 8572 
9153 1942 9031 2620 5873 6960 8156 8751 6858 
8746 9227 8501 7103 8807 7018 8890 6942 8767 
6348 3583 9388 2654 8659 6331 7567 4024 9734 
6461 7474 9302 5564 6269 3044 8666 9879 8396 
5312 8628 4432 3775 6151 9953 9893 7350 7418 
9384 243 2742 8730 7463 8918 6178 6415 756 
8091 8035 9876 9230 7329 7026 9175 9386 7519 
9885 6111 110 3260 7144 9636 7355 6982 8519 
9735 1529 5121 546 919 6556 5023 9926 5095 
5154 3193 5185 7345 6340 9531 8896 8050 41 
3921 7686 6623 5311 8051 6867 7933 8679 5599 
9075 5174 9341 5490 6052 5177 4971 8698 6735 
7192 8961 5014 403 6352 5824 8549 5945 5373 
6830 3753 7511 9093 7046 2117 3614 3815 6818 
2584 8450 9737 8480 6763 7007 5135 8569 8285 
5262 8704 9286 7121 6583 1952 4454 5277 7913 
7670 7872 9717 9461 6307 7803 3622 7679 7893 
5203 3349 5600 1224 6272 8949 1346 1839 9039 
9235 8302 2800 8753 8652 9351 362 2284 6487 
2110 1609 7312 5452 8119 6621 5622 7066 9456 
960 8225 5648 6008 7000 6795 2854 8968 1833 
5343 6291 4603 8392 9861 6127 5511 6920 1631 
9808 9635 4520 5112 759 1403 6565 9526 5222 
7163 1111 9699 6589 3809 5029 8136 6910 5554 
5459 8882 5944 5605 9408 9305 5088 8398 6325 
7100 9942 8588 8848 8738 7407 7868 7174 5042 
6840 8697 6150 3744 8969 7196 9784 5039 3059 
9625 5732 7079 1773 1535 3934 6320 8820 5828 
2204 78 8999 6027 7348 9503 514 3690 3626 
5758 4651 6569 4949 6994 5735 4646 6080 5009 
8033 9327 6987 1171 8699 8154 950 1191 8226 
7860 976 2121 5934 5676 3512 9152 9928 1317 
4381 5320 7779 7165 7 194 4350 826 10 
5391 9676 8752 2919 7754 1518 5451 7191 9073 
1849 5991 384 8147 9950 6640 5220 6185 1454 
3717 8058 4319 9186 7966 1539 9045 1583 5656 
6148 6014 3476 7333 8102 6180 986 9558 8347 
8977 544 7232 9033 217 1429 4650 7240 8030 
8925 3403 5232 4899 1412 2816 7256 2972 7858 
4162 4185 3537 422 3740 7506 1846 8320 1657 
568 6087 1125 6304 7744 2739 7138 8560 8327 
6677 4289 4788 8743 2500 6186 9053 7027 2712 
516 1834 6972 6045 5198 4171 7409 4252 2999 
2282 9569 7410 8885 6104 1507 8146 602 7517 
5484 3498 16 289 1842 8044 9930 5260 5151 
5632 2151 2997 4559 7725 9354 1668 3108 4533 
249 9252 6380 2707 1523 3605 6915 9287 54 
2806 8851 9771 7123 9076 1416 5104 2634 2211 
6236 2392 9043 967 7706 5071 728 6347 7627 
5077 6633 5306 7424 2725 1749 1199 523 1375 
901 1750 5531 2418 3343 1896 5061 581 8722 
373 3890 2259 3572 9160 246 8462 2598 5415 
1045 155 3268 1447 119 9350 1528 3072 3596 
1775 2843 4566 8789 4751 3270 8132 1213 4363 
9253 1947 1119 3048 4483 5356 8479 3319 768 
9683 9015 897 3266 7145 9495 8321 4884 2895 
968 8418 806 734 3846 6847 8328 2368 6510 
3458 981 2536 5004 4864 5643 7364 6413 181 
6863 2072 6119 440 783 2611 4066 4842 3287 
4188 9291 7148 2976 2052 8071 399 4814 9398 
9481 5709 8940 7977 7211 1894 9356 2401 8922 
4860 3181 4019 3187 1114 28 8361 5261 5860 
931 4699 2496 4776 4125 2208 3734 3569 558 
3841 1197 4334 1380 5445 3545 6109 4212 6439 
1066 2160 9489 550 4585 4644 4106 2676 2855 
7468 9184 5138 1010 1871 1721 8331 1487 2417 
2905 1778 3137 2154 1078 1889 4038 5325 5515 
402 2295 8953 5518 18 2608 4322 8689 9338 
1001 2858 2120 3949 2947 9487 695 3076 843 
6057 5438 6883 2240 2930 1722 4222 1022 7538 
2254 328 4264 147 5441 392 3141 2345 3316 
2612 2609 2916 1884 6451 2294 5593 5697 1669 
621 1629 1342 948 1151 5844 405 4027 4910 