# vtk DataFile Version 4.2
Generated by LIGGGHTS
ASCII
DATASET POLYDATA
POINTS 10000 float
-0.0191072 0.00100546 -0.0363944 -0.0181152 0.003782 -0.0368968 -0.0187522 0.00592424 -0.0365812 
-0.0185135 0.00771089 -0.0366934 -0.0186717 0.00951467 -0.0366226 -0.0186352 0.0113215 -0.0366407 
-0.0181661 0.0153942 -0.0368682 -0.0210377 0.0017972 -0.0353061 -0.0184771 0.00252494 -0.0356752 
-0.0201178 0.00324759 -0.0358405 -0.0206336 0.00504824 -0.0355551 -0.0189069 0.00452615 -0.0354701 
-0.0201393 0.0067776 -0.0358293 -0.0200285 0.00859364 -0.0358977 -0.0213585 0.00952955 -0.0351171 
-0.0200251 0.0104477 -0.0359006 -0.0213747 0.0113311 -0.0351108 -0.0195131 0.012038 -0.0352574 
-0.0209477 0.0131202 -0.0353604 -0.0193758 0.0135258 -0.0362565 -0.020199 0.0151848 -0.0357962 
-0.0207579 0.017026 -0.0354724 -0.019206 0.0167627 -0.036342 -0.019842 0.0184812 -0.0359997 
-0.0212681 0.0192014 -0.0351744 -0.0181943 0.0192004 -0.036021 -0.0223738 0.000913377 -0.03448 
-0.0196101 0.000892281 -0.0346795 -0.0228649 0.00261254 -0.034152 -0.0191445 0.00248973 -0.0340134 
-0.0217288 0.00379418 -0.0348929 -0.0200675 0.00401688 -0.0342 -0.0232935 0.00466282 -0.0338631 
-0.0220465 0.00572721 -0.0346828 -0.0203788 0.00614313 -0.0341527 -0.0187164 0.00619089 -0.0348153 
-0.0215218 0.00758677 -0.0350213 -0.022931 0.00824033 -0.0341143 -0.0195608 0.00771932 -0.0344122 
-0.0181853 0.00861118 -0.0351486 -0.0194972 0.00959791 -0.0344163 -0.0227413 0.0102655 -0.0342379 
-0.0233172 0.0122383 -0.0338481 -0.0179221 0.0126846 -0.0347293 -0.0224403 0.0137234 -0.034441 
-0.019615 0.0140213 -0.0345561 -0.0233791 0.01512 -0.0338119 -0.0217192 0.0155118 -0.0348904 
-0.0200581 0.0159551 -0.0341769 -0.0185734 0.0155582 -0.035123 -0.022803 0.016776 -0.0341977 
-0.0190339 0.0175136 -0.0347244 -0.0227228 0.0186975 -0.0342471 -0.019586 0.0192015 -0.0343735 
-0.0177959 0.0191593 -0.0342636 -0.0236897 0.000896154 -0.0332598 -0.0209078 0.00089696 -0.033443 
-0.0183414 0.000895645 -0.0334118 -0.0245309 0.0024585 -0.032981 -0.0211254 0.00266848 -0.0336327 
-0.0230817 0.00342758 -0.0325637 -0.0247224 0.00425326 -0.0328386 -0.0216606 0.00432446 -0.0331867 
-0.0190625 0.00505013 -0.0331274 -0.0246607 0.00604995 -0.0328874 -0.0233921 0.00729401 -0.0326655 
-0.0217918 0.00692718 -0.0333738 -0.0190492 0.00683601 -0.0329361 -0.0176636 0.00740068 -0.0339249 
-0.0246319 0.00858038 -0.0328999 -0.021184 0.00860676 -0.0335865 -0.0195301 0.0086595 -0.0328933 
-0.0230169 0.00936493 -0.0327037 -0.0177873 0.00958483 -0.0336892 -0.0241852 0.0106353 -0.0332343 
-0.0224301 0.0111631 -0.0327158 -0.0204657 0.0108907 -0.0336237 -0.0186931 0.0111272 -0.0339187 
-0.0215274 0.0123868 -0.0336723 -0.0244699 0.0134352 -0.0330275 -0.0197457 0.012537 -0.0335597 
-0.0178998 0.0133552 -0.0330619 -0.0213555 0.0145831 -0.0332879 -0.0246974 0.015881 -0.0328535 
-0.022237 0.0160239 -0.0326642 -0.0186258 0.0149628 -0.0334 -0.0182873 0.0167219 -0.0333013 
-0.0230913 0.017791 -0.0327405 -0.0211503 0.0173159 -0.0337428 -0.0196026 0.017952 -0.0330834 
-0.024163 0.0191427 -0.0332536 -0.0210866 0.0191999 -0.0333909 -0.0266771 0.000904034 -0.0312707 
-0.0252738 0.000897135 -0.0324141 -0.0234181 0.000900019 -0.0314828 -0.0210563 0.000894783 -0.0316546 
-0.0192729 0.000897741 -0.0318771 -0.0264519 0.00274629 -0.0314636 -0.0222987 0.00180882 -0.0325813 
-0.0197911 0.00255763 -0.0323465 -0.0180386 0.00230915 -0.0320229 -0.0247235 0.00322373 -0.03137 
-0.0212261 0.00342504 -0.0317046 -0.0267433 0.00450215 -0.0312099 -0.0244516 0.00518851 -0.0313272 
-0.0260693 0.00606444 -0.0317762 -0.0227535 0.00562331 -0.0324444 -0.0208098 0.00572615 -0.0324684 
-0.0176818 0.00546859 -0.0319746 -0.0202317 0.00718703 -0.0316078 -0.0261864 0.00785551 -0.0316751 
-0.0217571 0.008057 -0.0319796 -0.0183503 0.00797279 -0.0317379 -0.0265978 0.00957264 -0.0313382 
-0.0242889 0.0100431 -0.0315444 -0.0212136 0.00989199 -0.0323291 -0.0192738 0.0103655 -0.0323826 
-0.0176093 0.0110398 -0.0322223 -0.0257148 0.0123531 -0.0320702 -0.0238969 0.012006 -0.0320968 
-0.0211892 0.012297 -0.0319191 -0.0188842 0.0122836 -0.0320084 -0.022615 0.0132534 -0.0325384 
-0.0257306 0.0145481 -0.0320528 -0.0235803 0.0146981 -0.0320895 -0.0200055 0.0138293 -0.0323573 
-0.0184357 0.0143661 -0.0316739 -0.0211131 0.0149524 -0.0315152 -0.0196461 0.0157584 -0.032162 
-0.0178935 0.0160728 -0.0316785 -0.0260471 0.0164236 -0.0317967 -0.024363 0.017145 -0.0316206 
-0.0209011 0.017034 -0.0319827 -0.0254766 0.0184363 -0.0322539 -0.0238475 0.0188644 -0.0315104 
-0.0221302 0.0191688 -0.0319342 -0.0200845 0.0192053 -0.0318968 -0.0184206 0.0192041 -0.0325788 
-0.0280019 0.0011886 -0.0300857 -0.0249765 0.00144117 -0.0307305 -0.0220786 0.00211371 -0.0308264 
-0.0200449 0.00200139 -0.0306636 -0.0273403 0.00330696 -0.0300127 -0.0231818 0.00400498 -0.0308638 
-0.0217285 0.00506252 -0.0310766 -0.0196287 0.00484982 -0.0314361 -0.0278737 0.00632689 -0.0302042 
-0.0186393 0.00608705 -0.0305842 -0.0260965 0.00654435 -0.0300465 -0.02465 0.00697735 -0.0311596 
-0.0227009 0.00679659 -0.0310849 -0.0279348 0.00811685 -0.0301569 -0.0251652 0.00882577 -0.0305518 
-0.0235789 0.00841206 -0.0312844 -0.0213311 0.00768606 -0.0302763 -0.022044 0.00938994 -0.0308154 
-0.020133 0.00895093 -0.0312383 -0.0182976 0.00996916 -0.0309212 -0.0274882 0.0109578 -0.0305586 
-0.0255775 0.0108459 -0.0305828 -0.0228786 0.0110071 -0.0309856 -0.0210399 0.0108788 -0.0308341 
-0.0218969 0.0123562 -0.0302728 -0.019468 0.0116504 -0.0304338 -0.0258186 0.0126025 -0.0303014 
-0.0245566 0.0134626 -0.0312375 -0.0202789 0.0132326 -0.0306893 -0.018346 0.013052 -0.0304589 
-0.0270173 0.0137586 -0.0309751 -0.0228355 0.0138152 -0.0307198 -0.0272358 0.0155327 -0.0307817 
-0.0246778 0.0152625 -0.0307809 -0.0226394 0.0156739 -0.030924 -0.0198593 0.0155981 -0.0303867 
-0.0274769 0.0172999 -0.0305683 -0.0257365 0.0177404 -0.0306219 -0.0226922 0.0175127 -0.0310116 
-0.021112 0.0183647 -0.0306929 -0.019164 0.0173326 -0.0314577 -0.0268796 0.0191446 -0.0310951 
-0.0226447 0.019205 -0.030218 -0.0292878 0.000927204 -0.028836 -0.0262084 0.000897376 -0.0295392 
-0.0244696 0.000896145 -0.0290951 -0.022795 0.00089174 -0.0297332 -0.0211823 0.00158148 -0.029347 
-0.0187232 0.00089457 -0.030167 -0.028889 0.00264535 -0.0292408 -0.0256771 0.00261374 -0.0295635 
-0.023856 0.0025963 -0.0299345 -0.0183737 0.00267937 -0.0302951 -0.0216584 0.00363981 -0.0299834 
-0.0198603 0.00368818 -0.030089 -0.0287439 0.00497862 -0.02938 -0.0269478 0.00497236 -0.0294848 
-0.0253733 0.00431579 -0.0300559 -0.0237677 0.00435354 -0.0291995 -0.0182079 0.00444103 -0.0299757 
-0.024422 0.00595237 -0.0297004 -0.0226331 0.00570397 -0.0296631 -0.0204113 0.00598944 -0.0302766 
-0.0291521 0.006786 -0.0289745 -0.0249059 0.00762146 -0.0292417 -0.0231341 0.00761983 -0.0295493 
-0.0177662 0.00714226 -0.0294157 -0.0266583 0.00774107 -0.0288258 -0.0192575 0.00774734 -0.0302137 
-0.0285898 0.00966843 -0.0295314 -0.0268119 0.00938926 -0.0295641 -0.0235009 0.00936517 -0.0297735 
-0.0218731 0.00928873 -0.0290246 -0.0202667 0.00977011 -0.0296578 -0.0184919 0.00904311 -0.0292463 
-0.0265004 0.0112126 -0.0290824 -0.0243193 0.0108835 -0.0293045 -0.0225282 0.0110415 -0.0292281 
-0.0287429 0.011482 -0.0293807 -0.0237064 0.0123699 -0.0300984 -0.0207509 0.0115132 -0.029177 
-0.0175481 0.0117316 -0.0295453 -0.0292946 0.0131016 -0.0288268 -0.0274234 0.0126991 -0.0295023 
-0.0283033 0.0142331 -0.0298099 -0.026369 0.0145926 -0.0295177 -0.0247143 0.0138862 -0.0294996 
-0.0214046 0.0144284 -0.0298207 -0.0196064 0.0141564 -0.029314 -0.0180085 0.014768 -0.0299693 
-0.0280024 0.015889 -0.0291817 -0.0248919 0.0155776 -0.0289121 -0.0232739 0.0149534 -0.0294058 
-0.0263377 0.0165237 -0.0294135 -0.02381 0.0165904 -0.0299313 -0.0213076 0.0166469 -0.0302236 
-0.0174975 0.0164933 -0.0299895 -0.0281653 0.0176662 -0.0289519 -0.0249605 0.017607 -0.0290147 
-0.022527 0.0177116 -0.029233 -0.019718 0.0173476 -0.0297509 -0.0181442 0.018179 -0.0302483 
-0.0282121 0.019201 -0.0298886 -0.0264523 0.0192011 -0.0293523 -0.0247753 0.0191235 -0.0299956 
-0.0212274 0.0192054 -0.0291114 -0.0196171 0.019204 -0.0301604 -0.0279819 0.000892157 -0.0275914 
-0.0196792 0.000891949 -0.0286512 -0.027265 0.00208599 -0.0287096 -0.0256709 0.00165034 -0.0279972 
-0.0226608 0.00230417 -0.0286332 -0.0198448 0.00268114 -0.0285996 -0.0176142 0.00168631 -0.0289997 
-0.0297802 0.00391498 -0.0283318 -0.027985 0.00385745 -0.0281974 -0.0262104 0.00356218 -0.0281333 
-0.0243705 0.0028678 -0.0282362 -0.0226686 0.00399675 -0.0278228 -0.0209618 0.00407703 -0.0283972 
-0.0195595 0.00504832 -0.0289609 -0.0178309 0.00416208 -0.0282409 -0.0291375 0.00548802 -0.0277014 
-0.0275571 0.0062318 -0.0283602 -0.0260427 0.0053451 -0.0279768 -0.0245618 0.00636393 -0.0279494 
-0.0228652 0.00578132 -0.0278848 -0.0212086 0.00584413 -0.0285753 -0.0182062 0.0059251 -0.0281725 
-0.0304299 0.00673747 -0.0276338 -0.0216646 0.00757969 -0.0285161 -0.0197154 0.00682049 -0.0287518 
-0.030525 0.0085287 -0.0275205 -0.0283238 0.00828432 -0.0284158 -0.0201375 0.00852129 -0.0283805 
-0.0298292 0.0100041 -0.0282733 -0.0269107 0.00906863 -0.0276382 -0.0251664 0.00936992 -0.028841 
-0.0235897 0.00917091 -0.0279936 -0.0278645 0.0105282 -0.0281355 -0.0252979 0.0108322 -0.0278066 
-0.0207004 0.010167 -0.02796 -0.0189377 0.0107583 -0.0289706 -0.0301671 0.0117323 -0.0279193 
-0.0252702 0.0124322 -0.028609 -0.0237366 0.0118134 -0.0278809 -0.0264508 0.0135776 -0.0278939 
-0.0228353 0.0132921 -0.0288309 -0.0189758 0.0125492 -0.0288296 -0.0281052 0.014258 -0.0280283 
-0.0247436 0.0141123 -0.0277153 -0.021345 0.0139455 -0.0280774 -0.0182575 0.0143435 -0.0281167 
-0.029943 0.0149145 -0.0281557 -0.0267181 0.015482 -0.0279888 -0.0214794 0.0157952 -0.0286559 
-0.0188634 0.0159912 -0.0289425 -0.0295738 0.0166273 -0.0285461 -0.0231632 0.0163372 -0.0282765 
-0.0304522 0.0178801 -0.0276117 -0.0265414 0.017829 -0.0281935 -0.0210671 0.0176727 -0.0281907 
-0.0176414 0.0176299 -0.028617 -0.0295973 0.0191916 -0.0285181 -0.0278535 0.0192029 -0.0280765 
[...]
POINT_DATA 10000
FIELD FieldData 7
id 1 10000 int
3480 5976 8590 2982 9055 4938 7360 5814 3413 
6584 6645 9898 4943 9586 6522 8867 1757 7124 
3968 7682 9631 8286 115 1040 5417 7119 5673 
9960 5087 6051 2898 5475 8713 6794 8000 6098 
212 4546 7260 7573 2363 9532 4024 1665 9776 
7576 8592 6463 7164 9439 5850 8075 289 9687 
2701 8189 3896 917 5291 9264 158 8032 1839 
7278 9217 5060 6999 9914 6078 7703 9856 9857 
6674 9863 9951 6346 7894 7170 7029 4249 9842 
6450 6802 8877 7084 7593 1611 4196 2722 4807 
3039 9255 3038 541 6626 2213 6279 1657 5134 
7386 9444 6062 5276 9398 9012 1116 6616 4459 
4043 9261 8442 9976 604 9383 6490 9696 6793 
2478 9958 8324 9559 1240 2064 6756 8147 7171 
2603 5420 3917 7498 8063 9288 4604 453 7379 
5427 9276 6088 480 8762 8347 6748 9835 8498 
8810 2878 8083 6876 8207 9907 5638 2879 9583 
6112 9633 9653 3809 6985 356 7217 4981 5193 
9943 9148 3830 9786 7445 8671 415 8824 7302 
6689 1853 2449 8320 9837 8812 4945 8 6593 
5036 6610 7505 5791 2706 9225 4365 7865 2718 
9378 3077 1850 7156 6140 9748 1448 8972 7661 
9064 7259 5139 410 3901 2817 9827 8636 2108 
8996 9574 1367 634 1777 9415 6873 6823 3529 
9751 8311 2680 9522 9508 9346 9121 4209 8701 
1387 9179 3011 6278 493 8532 7910 7500 9056 
301 7086 9142 9791 9911 2733 2482 2122 3186 
4754 7133 9981 685 6493 5963 7005 3666 8352 
65 7891 7587 7052 4951 920 9638 3224 4054 
5848 1567 8958 7239 8486 927 6093 7508 1076 
7444 9927 5072 6110 9922 7305 8711 8445 7892 
2828 85 8243 3348 8579 9454 4622 9561 3732 
5397 3963 8587 6753 8632 3787 9759 5760 7361 
6390 4356 1263 3511 6738 5577 1799 8257 3149 
3583 9724 9606 5283 4141 2538 3765 7158 5521 
7569 2681 3180 7626 4273 4591 6146 7028 9082 
2215 9995 20 2008 5243 9253 9647 5590 1698 
801 5379 1550 2577 5520 5428 4815 8792 2981 
90 8004 3894 5140 9844 3684 543 9100 4352 
5186 9590 4613 4824 784 9527 7318 1454 8744 
9681 9965 290 6398 1897 6602 1112 4534 4542 
4538 1558 3544 9497 8236 4990 5883 4326 639 
2441 3966 9832 7937 9147 666 7072 578 6287 
6142 6362 4940 7346 8931 6395 9539 6319 9515 
1417 9479 1536 4600 1128 5299 9098 1713 4814 
6403 30 9595 6577 9207 7291 6121 9234 8277 
7632 4668 5662 4887 6828 9220 7575 2555 1787 
9733 3463 6541 2951 2658 1631 9565 5196 1570 
9571 9825 1615 7578 6893 8615 8771 7784 1836 
2365 4261 4935 3908 7439 2328 5794 9084 5157 
7055 8779 8433 8397 203 862 3165 5464 9804 
7719 8521 8869 1792 4846 9582 1769 4912 7843 
7827 8377 5409 8292 3735 2812 2269 823 9683 
8228 6424 2164 9272 481 5096 7050 2347 3655 
6091 6104 9881 4088 3354 5591 6253 9524 7770 
6116 4744 8364 3692 5659 397 5623 9831 444 
2700 3278 2799 9998 6077 4573 9690 8372 9731 
611 2875 860 2877 6839 6402 3160 9144 630 
5034 6141 4742 3727 5434 1365 9116 3320 8016 
9853 2911 7236 5309 2980 8161 5069 250 3146 
9908 9600 1253 3219 8093 380 9747 7830 4023 
961 2377 6757 2756 6210 1384 9320 5327 9828 
7709 9967 1245 9934 3100 7855 4972 3043 1754 
8631 704 3540 2489 3728 9567 1543 8128 3755 
9838 303 1949 4714 529 320 9248 5423 6866 
1729 8828 2529 7994 7717 9065 1361 2994 8412 
6161 6762 4357 2241 5965 261 7189 1866 1037 
5870 8665 7032 1783 8922 8919 750 4703 5162 
3176 4011 5129 8899 3021 6010 7835 4736 9722 
4145 9610 8566 1758 1697 7173 1132 5618 2520 
2429 3 3943 716 6655 9511 6928 3134 8160 
3080 6162 3998 9326 1816 4091 7117 7388 6680 
7472 7391 4567 9729 6068 4461 8758 722 7760 
6101 136 767 1159 9955 4539 574 5443 8227 
9880 9725 9218 9483 7252 7130 1899 7149 3836 
1092 272 5725 3731 4914 8673 9972 5065 7406 
2866 5849 8003 6536 9233 1464 7776 1861 9071 
8514 9593 3808 2569 4107 4517 1930 1199 9189 
8389 1004 2942 9466 9319 4854 1946 7556 7477 
2005 4213 4841 4984 9607 7462 2527 477 868 
7332 6836 9566 9537 491 8524 5640 3637 9156 
5485 2083 7226 9588 7058 4594 7051 5519 7214 
9848 9521 2515 1917 4859 5626 6649 9465 4505 
9005 7571 2120 7495 6318 9882 800 2270 606 
1721 9866 3064 7707 4838 3887 430 2206 6811 
9805 6020 9002 4203 9667 511 2 2251 9573 
831 5906 7584 2311 632 9645 9510 9870 1226 
8092 426 738 7398 3178 7266 3081 6578 8428 
6746 7974 471 4715 898 8329 2447 6768 5335 
296 6283 7979 6886 5286 9249 6449 8342 6605 
4241 4674 8359 4789 6034 9382 9534 5440 107 
1818 83 1660 4176 7529 1424 3415 4730 8429 
9732 2156 8997 8400 2442 2333 4903 7856 8484 
7132 7967 6552 9364 1763 7045 6936 8493 5300 
1878 1588 3906 9568 6668 992 9564 7092 457 
7191 8737 9741 3542 1200 6872 3922 482 6587 
3422 9983 1280 1527 6385 25 2392 6048 8960 
924 2151 7057 3610 3743 8178 3253 748 9718 
5209 6955 6686 3052 1943 1147 7222 9890 4521 
198 4298 6618 5174 6667 9957 1165 6943 3528 
2797 5528 7990 5383 6265 2426 8368 1372 2256 
1907 8662 2020 1544 7568 4527 3827 4513 19 
5370 8141 6947 673 4376 1084 9035 6827 5610 
3535 367 4371 288 1029 3892 4891 7078 7331 
7996 688 2946 5275 8350 9780 8002 1011 8298 
4219 7969 2253 2912 1231 6230 6644 7470 9137 
6934 9011 4115 3564 921 5969 5046 2802 2266 
2886 9628 2022 4992 6699 5555 8735 5573 7231 
8797 4297 5966 8844 3620 2584 6465 9150 9604 
9046 6368 9818 5785 4442 1612 8987 5011 9270 
8114 788 2287 8149 7944 6559 8215 5255 6554 
1712 5829 7921 5468 9259 999 1270 6783 9767 
5955 6470 2002 5124 9133 6572 2474 7896 641 
4169 1447 8531 5439 5627 8245 5678 1283 1427 
5119 3776 7691 1587 3561 1359 1110 1152 9917 
9553 9003 8338 5418 7437 5367 9945 8661 8674 
6309 1808 7175 5903 6549 2923 9414 5728 7535 
2176 3286 4472 2264 4123 4928 8819 8360 9523 
7683 8233 6207 1499 2398 7600 7938 7071 855 
5729 5579 875 2822 4518 8437 5636 5911 8104 
2775 7712 4770 225 6714 6484 4659 8517 5102 
6172 2214 7714 5203 8348 2882 7999 9556 3706 
7286 3713 1978 733 7228 2105 4416 5064 8336 
5982 9888 4583 6647 5566 6930 1332 8616 4921 
5272 3750 7264 8757 2977 6392 3942 9834 1811 
9325 2601 2305 2137 9764 501 5471 4154 3404 
2368 110 3338 2049 5483 5393 1410 5406 3049 
3009 7752 9043 1450 9591 4165 2130 3698 6969 
8748 6455 4565 9134 7795 7702 6313 1411 1515 
6877 8202 2820 8452 2004 8642 8499 3085 2672 
310 8825 3635 3774 8680 7334 4329 4119 2841 
385 9435 8468 2224 7215 425 559 4535 3584 
6642 6473 5091 2195 8040 3071 4478 1654 7515 
6817 3236 5086 3848 1388 8927 3162 8416 4310 
539 548 8522 126 6504 6167 6503 6353 840 
2372 613 6737 7336 7747 3719 5212 5195 2355 
7651 8933 5350 112 297 5929 4096 9113 7283 
6945 7668 4398 389 5613 7044 4840 9549 3411 
3532 7420 6694 5123 9328 3862 8373 4655 6544 
6589 3940 2054 3771 2557 3768 5537 6442 2791 
7304 4725 2858 5374 5298 3588 8106 622 1315 
8908 8100 8204 7219 2453 7320 6784 7465 8639 
7101 3676 9677 4592 5289 2304 5497 8849 3721 
8726 6721 8506 3336 3804 7867 5536 1608 3384 
7546 1496 8799 2419 8848 6977 7574 5004 8541 
3001 7426 832 9210 7650 1276 6729 4148 538 
3557 6617 707 9654 1920 9446 2477 3048 8289 
9626 3757 8248 1003 9060 5293 9124 591 4440 
995 6342 2189 1517 3820 9697 2299 3111 2859 
4780 7636 6786 2546 6518 3458 6381 9921 4110 
4080 7516 821 7447 7933 372 9952 6604 3793 
1967 7583 3108 7009 4917 8534 8720 582 7255 
6664 6071 5164 5290 9329 3139 8830 350 222 
8655 2210 6255 8060 8568 888 8140 4285 3351 
9001 1911 4746 6625 6838 8668 1368 7562 4507 
8015 6414 7697 1566 8504 9850 8667 3097 5586 
5218 2353 680 854 7656 5461 9194 9829 3709 
233 8872 676 4987 4220 9026 6181 6367 2190 
4999 9491 7718 3456 3483 4378 7672 3325 8556 
5877 8308 329 9649 3346 1039 689 8539 293 
4070 3283 6485 6003 8764 9931 8706 1406 7924 
8624 6901 9367 3200 1465 2135 7436 7140 3949 
9672 5922 3797 2416 6692 667 2870 8745 8912 
510 2944 1273 5768 5217 185 8879 7950 3688 
5756 3241 8086 5369 5052 7816 5073 9307 7482 
8069 5378 1867 5043 6958 3206 1488 5364 9401 
8709 8769 8105 7404 7922 2246 9707 2396 9090 
406 8801 4947 9138 5037 1467 5047 7443 8139 
6474 8942 4979 7488 8231 9484 5561 8535 615 
3295 4175 4944 9112 9132 7801 5875 6745 7290 
4102 3777 8080 9472 7943 3360 3094 5180 5775 
1479 8856 8788 5786 3951 5050 2543 6026 5053 
9163 5987 6400 6900 2153 2997 9498 6766 5241 
1052 1637 6233 9641 7566 3762 1109 5308 165 
7438 3687 9366 5477 3644 6682 4071 7112 7126 
9932 3650 3339 8270 918 6903 9406 2228 5652 
944 5457 746 3086 6448 2488 4536 8650 8162 
7414 1895 9358 2626 8910 2957 6187 1351 8687 
318 208 1905 9352 7211 9027 5924 7769 5782 
8441 1719 8862 7322 8284 8660 6508 756 6847 
9858 3449 1386 5012 8966 6798 6926 4162 1234 
5533 4818 7030 5882 9037 8169 7947 4197 9431 
4355 6890 7306 5183 516 2142 5063 8474 2728 
7138 7667 3566 2983 7540 2939 61 2201 9517 
7180 4752 6813 4959 170 9505 627 3521 780 
8246 3967 8084 1581 1393 4932 7319 809 2092 
9700 3595 1215 3465 3322 9365 1855 8708 5387 
2507 5163 6974 8876 9798 6685 8495 9125 857 
2852 1655 1319 782 7053 8581 3440 7160 5957 
7985 1083 2536 5999 7534 98 1135 4163 5925 
870 5684 4888 709 1991 5655 5776 7619 6586 
7491 1693 7193 6007 2403 8841 4436 2159 723 
6718 6204 14 6226 7905 8239 3122 6033 3720 
8011 6432 8903 8664 8697 395 7561 4062 2376 
6100 9317 4587 1606 5548 2031 9576 2492 7091 
9283 1538 9562 7854 7914 4309 3260 9206 6413 
6281 4487 4253 3014 5708 133 5179 3276 2283 
5745 6358 776 9749 4066 9104 1956 93 7590 
3326 4878 2239 2158 4654 1461 4632 3380 2435 
2386 8217 2043 6117 3455 7014 5495 7730 9787 
4294 8420 7343 6059 2404 8625 5496 5936 546 
2597 4117 3597 4701 3054 9475 2084 9196 6349 
489 7241 2525 2263 3350 6481 9093 7842 1174 
1186 5131 2711 6263 3590 2871 5107 7549 9448 
644 5120 9925 247 2512 6061 850 8108 6752 
4962 8287 8101 9570 3833 8614 7362 7281 3222 
5558 5247 8935 8677 4045 7471 8209 8375 9727 
3991 353 3377 5084 8548 576 4158 6378 2327 
1524 6696 7934 3089 5621 7804 5456 2855 6880 
2865 1598 7765 6519 8391 172 5094 1371 9752 
104 2134 982 807 4797 9202 8459 2737 1786 
9185 1760 879 8740 7501 1143 4758 4447 8337 
7888 731 4927 7805 2777 5268 3605 9826 1620 
8001 3726 5347 2417 4432 6495 3387 6053 8850 
6286 9238 446 7551 8282 6629 8262 1594 3381 
2364 4607 2144 5899 9119 2464 3712 9552 7819 
9714 8076 9509 5332 3846 3744 5688 1746 6328 
435 6670 7919 5235 5208 8635 2553 6477 6562 
9493 6874 8750 8387 7581 6716 1961 7786 1979 
7757 8354 9311 757 1097 7323 2834 3101 9392 
7269 5790 3794 2016 7242 5825 2369 1582 2644 
6209 7342 8255 6622 1805 6956 6221 6546 8407 
2317 695 4610 8595 5773 6499 5994 2924 9975 
7270 8596 2579 5161 1828 9897 1191 770 5527 
5983 276 3746 9443 7131 8811 6661 3340 8973 
6164 256 5325 2863 3118 1399 8279 2767 2759 
7984 9334 5556 2729 6591 3858 4936 7114 5978 
4247 1627 8192 7862 6675 3850 4477 8938 7339 
6698 4498 5252 7542 9492 6462 1541 5975 5783 
9691 9089 9494 8022 3604 571 6249 9481 8465 
274 3882 5522 4731 368 9254 2504 672 6870 
7895 8648 5238 5262 7538 5324 1780 6433 7591 
4424 7466 78 4402 7536 6335 8905 6151 362 
7686 9339 3730 7925 9547 5713 9219 5111 525 
3748 7903 8415 2712 9896 2265 6594 9096 5524 
9869 1923 4059 586 5128 7782 4599 8470 1138 
9314 7223 7235 5273 8657 6365 6669 4353 6807 
2037 2894 5462 7983 813 5442 5038 9107 6912 
911 7127 8609 8646 7857 5933 9912 4320 1801 
2528 8928 5808 9165 6004 6755 8319 5228 4039 
8062 8749 3229 6734 7430 7450 3502 8784 5109 
7677 7017 7307 8926 4850 5530 5646 5854 5045 
2146 8800 1343 7589 6706 5455 3469 9525 9061 
8731 5405 4572 8367 781 5569 5326 8081 3931 
6808 2831 5611 6918 7627 9427 9336 5081 6703 
8692 985 3034 1810 9143 2261 7047 6427 1636 
9111 1902 1381 1216 8096 8832 1781 7049 6301 
5221 600 5804 7533 6371 9874 9066 9038 7142 
4411 8892 4790 8444 2052 375 8185 7295 9820 
1965 5915 743 2764 8503 6944 8902 5544 492 
1812 2320 7265 3407 5859 2781 7959 5835 4671 
9799 8672 8643 3416 799 5304 1863 8526 8712 
842 5787 6608 8693 6709 3446 7152 8461 1093 
5117 9192 4404 315 6412 3167 2252 7657 5386 
8573 9342 6037 1842 7673 9416 1042 705 7249 
7550 9380 3934 7755 6509 7690 4042 4003 7946 
2578 8188 3881 6672 4961 7688 9010 3291 5864 
2573 6114 9889 4200 15 5967 744 4393 9768 
8669 9854 1556 9273 6588 4222 8273 1346 5404 
2776 7457 4058 8507 2739 8434 8694 5219 5492 
3775 5265 6025 5737 127 521 337 3120 2438 
5574 5205 5288 2704 6507 8299 2663 9742 1449 
1521 2076 6931 6320 8447 1133 4358 5722 7006 
2314 4529 960 3382 5085 6123 3331 2585 152 
7429 3628 4223 7387 7287 6906 5656 7218 783 
9991 33 4620 5553 6967 4006 7271 3353 7928 
8328 7721 1308 9616 563 1326 5946 7143 7724 
8254 2620 1504 2979 2968 5551 2069 8565 7957 
7543 5878 4883 7373 4848 8221 3459 6064 8067 
7791 1077 7003 2276 4044 7898 8929 7464 7292 
8985 5696 2599 7425 8249 8333 3753 7097 1470 
8489 3195 787 6662 4890 727 6043 3607 9528 
6780 8747 8722 1229 205 5615 2818 2354 9919 
6804 8380 9074 5988 2643 440 9585 1860 3109 
4061 1610 3337 4968 7109 9664 9792 7641 183 
9267 2757 8952 4227 2844 6850 9299 7090 6946 
6500 1239 6973 5718 4408 5058 3370 2872 2856 
9231 8934 7844 2773 6790 8376 2560 6085 6236 
6548 5996 7580 5743 8597 7834 3028 2324 7753 
9385 8285 6017 3330 7490 984 5048 6401 181 
8457 5604 3490 5788 8176 6001 9480 3240 1438 
8854 8782 8703 7427 6475 4124 210 7849 7354 
7390 2591 1724 5169 5547 4924 683 1474 376 
7520 6134 9723 7908 530 3247 3017 6013 2175 
633 5897 8341 2588 1575 2472 6506 4937 537 
5802 2188 5137 8571 5884 6372 7413 4412 7022 
7869 6648 5143 8945 4192 488 299 4566 8576 
6244 9822 8559 1047 4413 8090 3988 6217 6537 
1987 202 9158 8306 9516 858 4495 1033 2183 
3513 67 2646 58 2744 7137 8018 9763 7107 
6428 4426 4401 6744 1396 9468 9761 5888 6545 
1694 6597 1653 1009 6937 8857 8794 2787 4240 
865 6492 7531 4451 958 6214 810 4170 607 
3992 5720 5716 1891 9161 8802 12 4362 2406 
383 6740 2928 8409 1480 9814 5188 2341 9397 
8685 6976 8684 8072 1379 7440 7054 2055 9762 
6183 6261 464 4897 8009 5160 6975 5928 7412 
433 3845 1782 5021 2897 9601 7262 1053 7454 
3680 701 6595 8545 4057 2499 3722 1054 1870 
3237 595 6468 8508 9891 330 6825 623 167 
6337 186 6637 8138 9800 2202 3602 5359 6129 
6950 1585 9205 7850 2638 3825 2348 4901 4344 
6749 1510 1313 3210 5711 931 2437 5666 5181 
4875 155 8014 8564 9265 3136 1148 7654 4314 
6011 199 5748 3466 403 3092 7479 9710 6728 
8678 2517 6739 6959 6558 1962 1219 8805 6857 
111 1439 6376 7915 2552 6247 3923 2545 7971 
3745 3972 5329 8729 7178 8555 4997 7380 57 
3818 5171 1023 2469 1210 3457 7433 2316 9241 
8244 6994 1711 6070 8818 7948 1331 6717 5344 
497 6351 4545 3073 8073 7901 2660 7793 2268 
1947 4958 3739 4122 3182 6363 4556 2647 6665 
790 7942 1316 2160 7144 5916 8049 6044 4830 
4047 6271 3987 4761 1596 9464 6941 8205 1002 
132 5754 7476 2587 7976 8023 6568 9049 7395 
3409 2362 1547 5173 9244 1583 6182 4974 9059 
5724 7932 2490 255 9577 5258 4323 5098 470 
2805 4109 8626 9802 4710 72 8478 7349 2952 
3567 6106 5187 6397 7733 9666 2466 3025 3406 
3215 4430 1045 8547 8358 2021 6334 649 2454 
418 9847 2173 6779 2297 7220 6461 568 5742 
3088 1298 218 515 9041 2840 4910 3799 4041 
2564 2115 400 1176 3057 3141 8707 81 56 
505 584 9655 4699 5204 9092 9362 7469 1628 
1577 4407 4791 7621 4737 1641 9445 4633 7909 
308 1798 9909 9878 2409 1405 2685 6429 1925 
9964 3601 9433 8836 6030 346 5376 4027 8875 
2082 9973 5948 3962 4470 4384 964 5565 8456 
1683 551 2726 3058 6457 7367 2227 294 2694 
7639 8475 5826 4291 2483 2468 956 792 5493 
2606 5692 7341 4324 3737 3221 1397 8699 7633 
8593 2498 2045 3834 1638 724 4877 7448 3717 
2032 3316 4849 8408 2771 4970 5990 2091 5517 
3268 7766 4963 6557 6054 679 2816 9730 317 
3812 4160 1046 4543 9632 8675 6165 4172 2506 
5110 3665 5699 8458 1740 9956 3867 7473 2155 
84 3678 8371 5637 6799 1950 7774 8853 535 
852 4952 9905 3282 8165 9212 9181 4392 5263 
1692 6925 7748 1696 7951 3425 1659 6897 6065 
1851 2745 5680 2034 7870 3547 1618 1254 3056 
5817 2194 805 1995 4105 1599 9193 2848 2947 
6483 6055 2061 6885 5712 285 795 2716 8295 
9099 5710 4983 8362 5486 9657 9612 6878 9824 
5008 8839 9266 8129 5644 6310 7240 6849 7352 
9228 3926 1770 1937 9029 66 8473 4177 962 
4394 5167 7070 2965 3474 9935 755 618 3770 
847 1099 2904 9540 2493 3349 99 8061 6102 
5211 682 5697 7294 2595 9271 6028 5839 882 
8201 2679 6923 5964 9598 4670 1302 9154 378 
6596 5368 7643 4452 1889 5114 4864 8510 3491 
6750 1350 3264 5372 6865 4266 3412 6765 6954 
7646 9160 9721 6312 8166 4255 1048 2125 2769 
4097 8301 887 8355 5634 1699 9809 6764 5176 
9969 8393 8620 9819 6556 8168 6222 7798 9407 
109 5422 5281 7369 9946 2926 3140 8046 950 
8827 5472 7972 9634 1901 8296 694 3368 9302 
1380 1877 4858 2278 8525 5371 7648 4308 150 
145 1535 912 5940 5141 9775 8584 1317 3272 
9279 7089 4598 9901 7025 5302 1185 6711 8213 
7492 128 9793 7393 5894 5702 3736 1085 6883 
2991 6761 9806 6601 4191 1295 736 965 9447 
6290 313 4757 1378 1469 3191 2885 1066 8558 
243 8823 702 1428 9640 4268 3715 526 3648 
9277 2400 5076 1208 9993 9679 9813 92 1507 
7988 6862 1025 8266 6580 9739 1222 9257 3541 
9986 3150 7945 7917 6420 4257 4390 2985 6803 
8094 8330 3716 8957 6364 3168 7763 9596 7494 
802 6373 9738 4575 8623 1075 1297 6741 4048 
69 6075 1826 7195 3672 2401 637 8450 7595 
6118 3927 6436 7629 2149 1072 5812 1007 1789 
8361 8864 3004 8988 663 5797 5499 3414 6693 
2539 9617 9057 9563 1036 1264 4156 2501 4603 
6659 4448 7975 6213 4275 5735 9236 2589 1731 
8999 3626 7968 2395 9393 7935 9876 6814 941 
472 2950 5316 3979 1119 7893 4915 619 4278 
6027 9899 9372 8261 8155 7963 8717 5425 572 
4738 2766 9025 5900 6200 6990 4360 8419 9599 
2249 5225 5619 4178 6542 2361 9720 8608 5388 
7761 4350 8679 6417 5177 7150 5736 8172 9708 
6624 5234 1155 3851 512 5605 4666 6960 4794 
2671 8588 6350 8103 7884 7250 3682 3646 7530 
9388 9197 9879 7631 9078 9437 1802 7463 1080 
3343 6092 1790 4185 5441 2905 4187 1375 2050 
8959 892 1913 6754 3534 2930 1193 6510 7872 
8059 9095 177 7871 3920 3734 993 6663 3524 
651 9781 2339 5942 7356 2181 7141 1858 6743 
9611 3921 5415 812 6938 2986 6742 8119 1431 
3496 9077 7912 9625 4608 9682 1662 7789 9904 
7514 4168 2636 8634 3813 5013 2796 6148 314 
5616 4568 1823 1476 5525 7416 9603 6423 6439 
9990 7011 2119 4971 9558 5270 8698 9989 2208 
589 9771 7713 3636 5201 324 6858 4319 6282 
5833 5463 8860 6646 5437 1443 5295 8977 6708 
4195 5049 1775 7407 3355 4382 4905 495 953 
6057 531 3403 547 544 5118 2345 8858 9235 
8302 3537 6845 1284 2516 5664 5277 6566 5035 
2669 9812 4130 9734 7920 7874 5813 5254 3454 
7136 6451 8091 7836 1125 876 7351 4646 1584 
6515 6158 7965 4821 3947 9051 7108 7276 5452 
7681 4106 988 8065 4756 8379 8796 9409 9808 
7364 4334 1778 6875 4804 9643 5755 8511 7563 
9740 9356 5643 409 1621 1768 914 5905 6846 
6298 7846 7998 2519 2611 8197 7614 7555 8288 
7046 1285 9127 2062 3608 5311 5088 8058 3418 
6882 6347 2692 3571 2072 1477 7148 9252 7684 
7134 8283 843 1291 6987 3259 1667 8780 2315 
8666 8889 153 7081 8738 7474 6611 2303 2373 
2420 5831 9892 5199 8704 8659 3556 5828 8462 
7952 8968 715 2179 558 4125 3270 6710 1013 
6964 5320 1669 2321 2932 2282 7048 2742 968 
8033 6613 5865 1400 2554 1171 2041 259 4000 
8392 8314 4504 2465 6292 1425 5603 1403 3593 
919 4800 4998 926 2935 4672 9487 826 5151 
9770 1058 4559 9188 142 8466 1744 4233 4144 
3903 3630 8136 5391 706 5185 5939 131 6863 
6821 8247 6014 7706 1975 1885 5444 2014 221 
7829 1788 6800 8647 1001 5630 28 3358 3037 
5126 5002 7007 8890 4202 9390 6476 8940 2319 
6633 4860 3068 9737 8969 4698 3835 8815 4299 
4941 7858 1691 1684 2496 373 149 9506 4359 
5077 4444 3125 1168 5625 657 2500 2290 1629 
1846 3357 9180 6635 536 4311 267 3696 37 
2166 8948 621 976 343 4678 2036 9039 9489 
4217 2535 3512 7312 1883 6915 6704 1992 6524 
708 3144 3090 3392 2688 3156 9560 7625 8544 
4038 2810 3174 6831 7155 1452 8263 2876 550 
6445 3832 6322 6329 3434 6270 6177 5024 507 
7102 3652 6246 3311 7103 6076 5689 6267 6715 
6777 6018 1722 73 328 7548 4765 7174 3829 
1022 1718 219 4777 3234 2028 994 422 1271 
3505 1224 405 2788 7370 2753 972 8979 9514 
4601 4695 1020 8327 6133 4895 6844 2786 834 
6972 3400 119 7027 8610 9713 339 2913 7606 
4485 2916 3308 7779 980 5810 935 3386 819 
4463 4734 4884 2714 7802 5023 1121 4017 4787 
8618 2147 9291 3565 2693 7243 1408 3764 1756 
3044 3893 8118 8527 144 9408 6678 3476 3267 
2649 518 5886 8476 1906 8304 3960 204 1749 
3045 3485 6763 9286 4035 3841 6612 1005 3036 
4510 3623 3724 590 4663 6109 1342 1389 581 
3811 8676 2103 4484 564 9867 5534 3239 4679 
3169 9386 496 4879 797 4246 323 2274 5540 