# vtk DataFile Version 4.2
Generated by LIGGGHTS
ASCII
DATASET POLYDATA
POINTS 10000 float
-0.0182685 0.00199603 -0.0368236 -0.0188826 0.00583603 -0.0365061 -0.0183583 0.0113525 -0.0367605 
-0.0189662 0.0130153 -0.0364689 -0.0183957 0.017632 -0.0367596 -0.0191778 0.0192004 -0.0363503 
-0.019523 0.000893881 -0.0361699 -0.0197338 0.00268831 -0.0360508 -0.0212755 0.00295636 -0.0351701 
-0.0200094 0.00454288 -0.0359065 -0.0182552 0.00444627 -0.0355306 -0.0206091 0.00620219 -0.0355685 
-0.0192282 0.00759546 -0.0363262 -0.02127 0.00782781 -0.0351677 -0.0214476 0.00974326 -0.0350649 
-0.0199697 0.00918744 -0.0359212 -0.0182828 0.00959706 -0.0363798 -0.0202389 0.0112663 -0.0357779 
-0.0209225 0.0128778 -0.0353819 -0.0210457 0.0147678 -0.0353066 -0.0184707 0.0147209 -0.0362034 
-0.021391 0.0165162 -0.0351014 -0.0194818 0.0162073 -0.0361891 -0.017867 0.0161996 -0.0353848 
-0.0202012 0.017807 -0.0357964 -0.0212015 0.0191851 -0.0352159 -0.0222005 0.000906363 -0.0345939 
-0.0204603 0.00132021 -0.0347034 -0.0187213 0.000892808 -0.0345596 -0.0232035 0.00244823 -0.0339267 
-0.0181849 0.00251224 -0.0351078 -0.0227212 0.00419366 -0.0342533 -0.0209659 0.00454663 -0.0343922 
-0.0221264 0.00596265 -0.0346382 -0.0189501 0.00587541 -0.0347047 -0.0230273 0.00740075 -0.0340417 
-0.0195983 0.00754242 -0.0345693 -0.0178845 0.00716367 -0.0340378 -0.0182851 0.00873709 -0.0348072 
-0.0200328 0.00921872 -0.0340974 -0.0188847 0.0104538 -0.0349271 -0.0221827 0.011857 -0.0346002 
-0.0202414 0.0113149 -0.0339873 -0.0176628 0.0117666 -0.0347874 -0.0192524 0.0126024 -0.0347486 
-0.0223824 0.0139027 -0.0344714 -0.019538 0.0143449 -0.0344266 -0.0178434 0.0137791 -0.0348044 
-0.022731 0.0156735 -0.0342402 -0.0196466 0.0164477 -0.0344138 -0.0225485 0.017663 -0.0343603 
-0.0207607 0.0178554 -0.0340904 -0.0185942 0.0177901 -0.0349873 -0.0195655 0.0192071 -0.0344751 
-0.0247699 0.0010384 -0.0328029 -0.0229664 0.000898033 -0.0329746 -0.0211702 0.000900857 -0.0331027 
-0.0192139 0.000899522 -0.0328316 -0.0211519 0.00272668 -0.0333984 -0.0194197 0.00247153 -0.0338055 
-0.0241449 0.00397782 -0.0331815 -0.0176333 0.00351706 -0.0337294 -0.0192529 0.0042578 -0.033936 
-0.0250603 0.00547046 -0.0325783 -0.0236119 0.00563001 -0.0336443 -0.021951 0.00549841 -0.0329151 
-0.0204645 0.00615959 -0.0337861 -0.0217807 0.00863549 -0.0336442 -0.020368 0.00774807 -0.032962 
-0.0187083 0.00856134 -0.0330752 -0.0249531 0.00892693 -0.0326643 -0.023506 0.00914689 -0.0337133 
-0.022204 0.0103827 -0.0335698 -0.0189966 0.010332 -0.0331419 -0.0248557 0.0122221 -0.0325102 
-0.0236875 0.0113918 -0.0335913 -0.0237472 0.013182 -0.0335506 -0.0208639 0.0132805 -0.0336402 
-0.0191561 0.0132201 -0.0330672 -0.0220309 0.0146995 -0.0328971 -0.0202389 0.0147092 -0.0327585 
-0.0248613 0.0154816 -0.0327074 -0.0181372 0.0152211 -0.0337225 -0.0239232 0.0168273 -0.0334249 
-0.0210843 0.0161829 -0.0333619 -0.0177122 0.0168672 -0.0331454 -0.0228833 0.0180618 -0.0326482 
-0.0191588 0.0179202 -0.0332893 -0.0240917 0.0192064 -0.0333057 -0.0218086 0.0192026 -0.0335302 
-0.0178118 0.0192032 -0.0339146 -0.0259001 0.0008933 -0.0314186 -0.0256306 0.0025163 -0.032135 
-0.0238422 0.00247411 -0.0322486 -0.0220984 0.00215606 -0.0319844 -0.0203069 0.00203856 -0.0319742 
-0.0179155 0.00212745 -0.0326344 -0.0265087 0.00397696 -0.0314067 -0.0224945 0.00383709 -0.0324791 
-0.0191509 0.00337646 -0.0322839 -0.024715 0.00408204 -0.03148 -0.0206534 0.00429 -0.0326433 
-0.0188531 0.00513763 -0.0324226 -0.023409 0.00527039 -0.0318978 -0.0203733 0.00598425 -0.0320106 
-0.0255869 0.00715313 -0.0321719 -0.0238249 0.00695653 -0.0324571 -0.0220366 0.00724922 -0.0325259 
-0.0188884 0.0069317 -0.032348 -0.0263494 0.00876337 -0.0315403 -0.0231533 0.00856353 -0.0320268 
-0.0208308 0.00971657 -0.0325645 -0.0193235 0.0094302 -0.0316269 -0.0258735 0.0107596 -0.0319348 
-0.0237552 0.0102347 -0.0322297 -0.0221667 0.0104003 -0.0314079 -0.0196482 0.0112032 -0.0317082 
-0.0212376 0.0114679 -0.0325087 -0.018201 0.0122608 -0.0318882 -0.0235069 0.0124923 -0.0313522 
-0.0222618 0.0129466 -0.0325642 -0.0205255 0.0131239 -0.0318858 -0.0255033 0.0138776 -0.03224 
-0.0236215 0.014301 -0.0321506 -0.017806 0.0140512 -0.0322214 -0.0262776 0.0153705 -0.0316037 
-0.0209998 0.0158888 -0.0315902 -0.0225879 0.0163138 -0.0323368 -0.0193256 0.0162491 -0.0326536 
-0.0266774 0.0173347 -0.0312659 -0.025238 0.0174265 -0.0323476 -0.0211409 0.0176646 -0.0323425 
-0.0255058 0.0192043 -0.0322124 -0.0237234 0.0192009 -0.0315392 -0.0218504 0.0192068 -0.0317395 
-0.0202429 0.0192017 -0.0326485 -0.0184687 0.0192063 -0.0322494 -0.0274782 0.00089911 -0.0305685 
-0.0248402 0.00149807 -0.0301084 -0.023674 0.000897793 -0.031329 -0.0212903 0.000894523 -0.0309984 
-0.0195 0.000896729 -0.0308488 -0.0264241 0.00240898 -0.0305304 -0.0185974 0.00245431 -0.0308491 
-0.0233509 0.00319377 -0.0306795 -0.0201673 0.0033156 -0.0307197 -0.0280138 0.00420963 -0.0300836 
-0.0229809 0.00488741 -0.0301993 -0.0214426 0.00453329 -0.0310517 -0.0259369 0.00563642 -0.0310201 
-0.0216714 0.00629989 -0.0308322 -0.0195138 0.00606934 -0.0304357 -0.0178955 0.00537777 -0.0309244 
-0.0274631 0.00647808 -0.0305842 -0.0249318 0.00757152 -0.0305625 -0.0231846 0.00725816 -0.0308006 
-0.0176316 0.00714967 -0.03109 -0.0276518 0.00825867 -0.0304057 -0.0210514 0.00830268 -0.0314012 
-0.0193386 0.00781266 -0.0308405 -0.0245923 0.00929193 -0.0309456 -0.0224189 0.00892333 -0.0304119 
-0.020696 0.0098363 -0.0305448 -0.0177961 0.00887071 -0.0306018 -0.0279599 0.0100861 -0.030133 
-0.0261643 0.0101686 -0.0302601 -0.0244906 0.0110816 -0.0308336 -0.0178078 0.0105668 -0.0312033 
-0.0268223 0.0120705 -0.0311407 -0.0216991 0.0120554 -0.0308799 -0.0252031 0.0127989 -0.0308454 
-0.0183946 0.0135335 -0.0306057 -0.0270101 0.0138524 -0.0309811 -0.025475 0.0144761 -0.0302624 
-0.0236798 0.0144424 -0.0303601 -0.0220252 0.0143923 -0.0311249 -0.0198509 0.0145475 -0.0310161 
-0.0278083 0.0153034 -0.0302761 -0.0239722 0.0159891 -0.0312327 -0.0183403 0.0155243 -0.0313346 
-0.0254853 0.0163641 -0.0303306 -0.0242975 0.0176903 -0.0307502 -0.0224802 0.017736 -0.0309293 
-0.0207829 0.0174387 -0.0304138 -0.0194426 0.0178791 -0.0315234 -0.0176659 0.0176153 -0.0315093 
-0.0268961 0.0191267 -0.0310833 -0.0252196 0.0192022 -0.030444 -0.0203627 0.0192032 -0.0307319 
-0.0184313 0.0191181 -0.0304625 -0.0281783 0.00089849 -0.0289144 -0.0262956 0.000915987 -0.029213 
-0.0180658 0.0011044 -0.0297904 -0.0283192 0.00246246 -0.0297898 -0.0268294 0.00263654 -0.028798 
-0.0235271 0.00275377 -0.0289464 -0.0226486 0.00164147 -0.030053 -0.0209425 0.00207074 -0.0296889 
-0.0193337 0.00273468 -0.0292384 -0.0292673 0.00384648 -0.0288579 -0.0249608 0.00327825 -0.0298891 
-0.0219788 0.00353689 -0.0295639 -0.0178478 0.00384407 -0.0299861 -0.0262838 0.00447263 -0.029689 
-0.0194746 0.00450076 -0.0295616 -0.0278288 0.00557194 -0.0289293 -0.0244644 0.00588634 -0.030023 
-0.0212403 0.00526873 -0.0294238 -0.0182225 0.00573788 -0.0291968 -0.0286846 0.00713985 -0.0294451 
-0.026881 0.00709652 -0.0290052 -0.022554 0.0065105 -0.0292965 -0.0210008 0.00757489 -0.0297556 
-0.018125 0.00751625 -0.0294138 -0.0258348 0.00861597 -0.0294157 -0.0236355 0.00817269 -0.0293196 
-0.0196018 0.00854604 -0.0291783 -0.0289994 0.00898438 -0.0291244 -0.0241328 0.00990156 -0.0293218 
-0.0190038 0.0100416 -0.0299693 -0.028855 0.0109367 -0.0288275 -0.0229266 0.0111249 -0.0299531 
-0.0174321 0.0107528 -0.0294549 -0.0270874 0.011472 -0.0294072 -0.0253197 0.0117551 -0.0293975 
-0.0206201 0.0113691 -0.0296123 -0.0186728 0.0117982 -0.0302257 -0.0282915 0.0134028 -0.029809 
-0.0264159 0.0131775 -0.0294257 -0.0238384 0.0127961 -0.029613 -0.022117 0.0133223 -0.0296815 
-0.0200409 0.0129742 -0.0301646 -0.029047 0.0158172 -0.0290783 -0.0239544 0.0160224 -0.0294379 
-0.0205257 0.0157458 -0.0298616 -0.0188154 0.0150263 -0.0296305 -0.0272254 0.0165124 -0.0290842 
-0.0222381 0.0162905 -0.0298974 -0.0190675 0.0167295 -0.0302008 -0.0174784 0.0162226 -0.0295356 
-0.0287304 0.0175575 -0.0293923 -0.0266081 0.0181054 -0.0296358 -0.0249609 0.0175333 -0.0290689 
-0.0180962 0.0178735 -0.0292153 -0.0282213 0.0192073 -0.0298847 -0.0237703 0.0188265 -0.0294477 
-0.022091 0.0192043 -0.0299661 -0.0298466 0.00102476 -0.0282608 -0.0237341 0.000897992 -0.0288284 
-0.0199789 0.000897195 -0.0287319 -0.0183391 0.00106399 -0.0280209 -0.0303191 0.00279189 -0.0277565 
-0.0285806 0.00242491 -0.0280124 -0.0251105 0.00207958 -0.0284386 -0.0219512 0.00229481 -0.0282245 
-0.0255874 0.00377855 -0.0281259 -0.0206244 0.00363454 -0.0283762 -0.017767 0.00297338 -0.0283949 
-0.0273257 0.00416181 -0.0279221 -0.024146 0.00452635 -0.0288888 -0.0224698 0.00469755 -0.0282417 
-0.0186182 0.00449413 -0.0279635 -0.0295655 0.00585665 -0.0285634 -0.0260301 0.00565332 -0.0283568 
-0.0237591 0.00606574 -0.0280535 -0.0202355 0.005331 -0.0279327 -0.0250623 0.00709979 -0.0288414 
-0.01965 0.0067926 -0.0287958 -0.0304892 0.0079945 -0.0275668 -0.0281668 0.00793528 -0.0279225 
-0.0263986 0.00814674 -0.0276356 -0.0247309 0.00870867 -0.0279989 -0.0220253 0.00845243 -0.0285673 
-0.0272947 0.00932776 -0.0286507 -0.020855 0.009805 -0.0287617 -0.0178053 0.00915087 -0.0287401 
-0.0303017 0.0111062 -0.0277726 -0.0271483 0.0108631 -0.0277172 -0.0256971 0.010145 -0.028482 
-0.0225847 0.0101824 -0.0284624 -0.0190323 0.0103781 -0.0282064 -0.0239012 0.0114036 -0.0283618 
-0.0221969 0.0119471 -0.0285293 -0.0192379 0.0121245 -0.0285623 -0.0294568 0.0126241 -0.0286723 
-0.0277118 0.0127007 -0.0282623 -0.0256842 0.0136043 -0.0278397 -0.0231937 0.0133551 -0.0280321 
-0.0297836 0.0143559 -0.0283328 -0.0276582 0.0146745 -0.0286073 -0.0243363 0.0147208 -0.0282573 
-0.0226781 0.0148487 -0.0289245 -0.0206451 0.0141852 -0.0289872 -0.0190291 0.013879 -0.0282666 
-0.0174239 0.0139903 -0.0291639 -0.0259753 0.0152692 -0.0287305 -0.0214051 0.0159539 -0.0283116 
-0.019609 0.01598 -0.028329 -0.0179632 0.0153088 -0.0280745 -0.0231236 0.0162336 -0.0278604 
-0.0299628 0.0176305 -0.0280892 -0.0281904 0.0177505 -0.0276908 -0.0262954 0.0178162 -0.0278461 
[...]
POINT_DATA 10000
FIELD FieldData 7
id 1 10000 int
6870 6729 6020 4393 1040 6593 6140 9384 7028 
5203 6413 8416 9958 3395 4780 8320 6221 6873 
2852 3830 4432 3732 9866 3544 6230 3278 7764 
3676 9253 7153 9683 5967 3835 1902 6025 4654 
4814 7893 8459 4122 110 7447 1128 6091 7986 
1594 8285 8202 3547 6877 1757 5109 3409 6351 
3222 6350 7694 5847 2472 9691 66 8919 8507 
3881 2031 8856 6102 7643 8959 8371 2469 3858 
7141 5022 7130 2663 8447 8811 9468 2137 1450 
2153 6693 5808 7523 9558 7703 8262 2453 5051 
4955 3777 8228 6378 9605 7530 8697 4024 672 
5940 7097 6566 5797 9910 5211 243 7305 7354 
8722 756 4353 7774 1517 4058 3799 6901 9231 
6644 6483 7760 6753 6292 2327 7395 8069 7933 
8544 4097 5692 6589 7842 7369 2620 9802 2122 
7009 6646 2584 7281 2981 5854 6768 3583 8161 
8610 8985 1535 6508 9727 3775 5569 9640 6541 
1346 4761 2315 7631 362 5933 8073 9818 6862 
5905 9625 960 3260 4546 9160 546 4384 9197 
9904 1631 3921 4974 1476 9983 1403 3713 9721 
5177 8018 7646 2767 8247 9989 3753 5873 6689 
8192 8588 8450 6106 6150 5262 6777 6509 5831 
5259 2816 7757 7729 9699 8666 9541 3349 8061 
9167 6063 2739 2742 9892 4470 9793 8091 5625 
3665 2712 5263 7356 1191 3593 6964 2854 919 
7870 9643 1317 4603 7988 5755 9678 3108 9102 
3630 9887 3809 6923 6801 6347 1454 403 5728 
7137 1583 9099 5217 8347 7069 5049 6986 1199 
3744 9388 6824 9734 9935 6291 7872 3924 9180 
5740 1657 6151 8785 9843 4941 9901 2843 6994 
2284 9386 8997 1609 7176 9740 897 8968 7144 
7681 6710 6217 2935 9781 6104 4381 5185 8430 
2997 826 61 5810 8065 9929 9356 8679 6423 
7075 7340 7998 440 3717 8136 6054 9025 6236 
5605 7511 7231 8295 8254 512 8977 8848 8501 
5126 7317 8704 2654 6006 2401 8325 9159 373 
4162 5277 9879 7048 3268 1839 5600 5250 7138 
8730 9437 7836 5735 5588 5019 6742 9660 6439 
516 1171 5668 5294 2282 9636 6083 9807 5320 
6556 8511 9674 5733 1721 289 6467 8010 8432 
8328 4559 9808 7686 5449 8466 5044 3605 2536 
8147 4971 7243 783 7789 8118 8283 2120 5656 
9093 9385 7627 8738 7103 9394 7383 523 7256 
9286 5317 7975 7955 3343 6461 8979 9744 2345 
3934 9867 4185 7463 9535 7875 1380 1447 8560 
9039 6614 5727 5805 3626 8035 1013 1834 8699 
7312 6707 8843 1947 8226 7606 6218 1507 5023 
8768 9518 2368 10 7345 6875 6810 2417 6524 
5004 4533 8698 9188 8220 4549 7191 7168 9796 
9771 8058 6352 7797 4888 2392 9408 6960 6624 
6800 5463 843 9398 544 8807 7238 6241 2805 
7240 9463 6527 1896 2972 8659 8858 5985 9988 
568 6320 9587 8937 9101 2294 4699 8999 1224 
5254 9706 3709 8891 8682 4566 8743 4646 9996 
5491 9672 5452 5078 6327 3968 1119 7355 5851 
9417 2855 3512 9999 2587 8889 6340 9900 8436 
7882 1566 6348 6510 5391 8392 5599 6997 5921 
6156 9122 10000 2317 181 6915 5947 6832 1823 
4319 6910 5824 8475 6965 8600 5266 767 3949 
6148 8156 7820 6678 9078 5898 8451 9015 9409 
8602 7299 5742 5121 8117 7745 6270 5759 7215 
6196 6451 858 1655 9858 5521 2982 1448 895 
5014 3237 7278 8944 6412 6420 8144 9655 8301 
6987 7401 9708 5360 6937 6290 9113 8049 6371 
6600 9525 6935 9779 1668 6694 6847 9897 4060 
9066 5234 1775 5451 6795 9755 6805 8205 9665 
6867 9077 5637 7952 4838 8312 9346 5060 8524 
8489 6849 8092 3901 9329 8185 8219 5171 6711 
9095 6057 5077 7407 8267 5607 4587 8030 8480 
7121 7496 8943 147 901 9280 9670 3291 2496 
8462 6027 7489 1575 5761 9695 6598 847 3569 
5758 8302 2500 8119 8275 6521 6308 2305 2160 
6045 6657 6609 7486 3048 976 8225 8948 8691 
9868 1805 3392 2895 9260 9861 8314 6818 589 
1883 1778 8044 9713 5609 4038 249 9676 9347 
7123 5029 9075 8388 944 9186 7518 6366 6904 
2947 9043 5088 7046 6713 9441 2817 6633 7868 
8890 5700 5998 4886 4444 4860 8969 6246 7419 
6219 723 9461 8396 2532 2259 8820 7916 2671 
5593 6087 6272 9893 8487 5005 427 1659 8789 
8276 5105 4306 2383 1792 8132 5198 6621 6535 
1648 6971 965 9885 5469 3491 790 4483 6982 
5714 5881 602 9152 9294 5487 1924 1336 5760 
4504 3137 9930 5095 9019 7802 9252 9073 5311 
7692 8460 5650 9526 6653 5305 3418 2435 2072 
9287 8477 9360 2386 1437 8689 9338 9076 5945 
8572 7033 185 3664 2101 2976 3476 2117 7810 
4978 2487 3972 2159 5709 7232 6763 6895 6192 
3779 3181 1750 9302 5910 5981 3247 5828 5564 
8760 5514 7558 2028 2064 2612 3537 6307 8611 
715 1342 2598 8024 298 993 558 4651 2800 
9009 4953 4986 9849 9961 7871 9489 1213 9569 
9230 9994 7374 4322 9314 5648 5338 3203 1378 
3440 891 7468 5260 8604 8878 3067 968 6127 
8861 7313 7833 3451 314 3458 6380 9635 9531 
8736 4568 5174 4201 5494 409 6863 1416 5410 
7545 7966 5373 9153 5041 7301 2014 2034 2062 
7333 8398 6858 8280 6444 3037 679 8940 7196 
6942 7509 8540 8381 7001 99 4222 8925 6583 
6331 9331 9068 5441 28 9226 3828 531 1790 
7348 5312 6294 8345 583 2595 1913 5697 8411 
5153 4194 948 9350 7350 9004 9840 593 2032 
375 855 5445 8154 8918 9499 8300 2109 5056 
5622 4791 2859 9184 3266 6227 9412 8098 4095 
9301 5154 7671 7073 1915 4797 1058 7725 8752 
5059 8109 9467 2119 3348 5325 2154 9063 7987 
2189 5643 2919 8051 7227 6640 6848 6160 5806 
142 4575 1001 4066 967 5554 1942 1169 3502 
9487 6325 3614 2993 5239 4765 5438 7174 7007 
8641 102 1791 6611 1022 4019 5101 8008 5178 
3242 1077 3556 422 7803 6494 7122 7890 4756 
5415 1125 3622 5207 5584 5093 5349 3789 4484 
323 8753 9974 7198 6074 1020 4434 3545 4171 
7329 1225 900 657 2121 4881 7674 8323 7254 
643 7517 8519 5694 8238 4021 3474 2306 4425 
8418 9928 1833 9344 3716 4274 5511 5746 9149 
64 5515 7364 8896 540 4671 1261 5422 6735 
5172 6981 6933 793 3856 6119 5104 5902 8950 
75 4738 2052 6830 836 6957 8888 2535 3903 
7706 8102 8746 9308 1251 8996 7977 5306 5135 
8767 8956 5436 8190 534 2669 4299 4849 9784 
1952 7065 8361 8628 9423 5919 4156 7913 7513 
7624 6787 2590 1389 2914 9503 6733 8332 3841 
6080 6178 5448 2623 6531 1214 3191 6487 5744 
6089 697 1116 4751 5356 7409 8242 291 137 
2181 550 6008 6111 4364 5138 5484 9735 6084 
7408 8492 1400 536 8331 5151 8050 7768 7666 
6407 7165 7863 9048 6374 1752 8953 5222 933 
1621 2760 5220 7192 8702 8900 2927 4076 776 
1396 2858 2634 5459 9303 5660 5992 3747 4048 
9324 695 7100 1508 59 4619 453 2991 6883 
5042 7604 6354 5175 8111 7538 3403 7567 8554 
6303 4092 2576 888 2870 3187 7079 6630 7640 
8356 236 392 3740 5016 5033 410 4776 6304 
7418 6773 4597 2250 94 3920 6491 6458 5959 
1117 367 6186 6569 6540 8561 3347 2113 1992 
7026 8645 4363 8479 6276 7381 3982 1466 1239 
1409 7145 6330 8097 7623 7806 2404 498 5343 
7019 8349 2675 6860 3174 2688 9354 7296 7936 
2630 36 2766 1168 54 9341 7155 5003 5466 
170 402 8961 6138 3168 4842 7864 3885 3514 
4526 842 4039 5024 6180 9942 9227 7056 7213 
1589 1707 765 4548 145 6642 7211 9033 8569 
6073 7618 8142 5912 3311 5039 6948 4724 7521 
7452 2111 5531 5232 8533 2373 9424 9017 7879 
807 267 4359 5261 7670 7041 5677 153 8148 
9289 1565 4187 1197 514 8652 7245 6605 4847 
6576 4000 4585 1528 8191 1115 5009 7066 8971 
6243 3373 3673 5934 7537 6208 6038 6526 3162 
3319 1529 5330 7981 5546 8485 3060 980 2339 
41 8826 5231 1274 5632 5336 7861 8449 9440 
3608 1044 1849 4520 6892 4638 2707 7244 6343 
6015 1137 4969 4334 2769 253 7400 7751 9014 
950 784 7794 4479 5142 217 5612 7658 5687 
7866 1532 5158 2319 1284 6269 9429 8378 6188 
7649 7565 9484 3004 892 2609 7918 8654 2353 
8028 2204 7004 8676 7813 4975 8231 2303 1669 
7036 7347 7105 6166 4659 219 7744 9860 7002 
9242 3456 1151 8033 9351 4982 9413 9208 6090 
2946 2093 2679 6109 6677 9669 7559 5269 3232 
4552 4529 7410 5777 9129 1193 1010 7274 6550 
6514 4407 9495 6920 5771 1175 5989 652 3114 
4679 3254 806 7754 5112 5698 5340 445 5518 
8563 7020 9507 6567 1121 7163 5973 3010 4350 
3496 3287 8882 5170 6329 775 117 6177 7862 
5071 7247 8425 4635 1968 3758 5689 7424 6840 
6715 8039 9168 4947 3721 2254 4899 5914 8210 
9086 5513 5871 3559 4454 596 9513 7540 3706 
2913 8263 7506 6081 916 7775 5665 9315 7574 
7031 7481 1045 3690 9284 6145 7831 8335 3322 
2508 2932 3072 7679 9175 7402 9496 8274 329 
9185 914 1617 2628 9456 5962 655 1695 932 
4252 7303 5202 8200 87 6360 4101 768 7000 
3401 5375 416 4063 5394 1871 3603 7992 4750 
2534 4665 2151 5082 6582 7693 3759 374 2150 
1523 5991 5490 5739 8438 592 4144 2985 8542 
4203 2661 343 8315 6185 9030 905 1237 2169 
9026 3571 8071 6326 7078 6726 5979 4446 5435 
3720 3652 2240 8304 5772 7363 5879 5150 5602 
6050 1691 3947 6194 8409 8367 6410 2916 8978 
9323 9317 4309 3424 5061 7510 8406 6792 1629 
940 6851 5446 7479 8927 7267 4674 621 6415 
8658 6336 7325 5407 456 4695 5844 4289 5657 
5686 7907 6358 4241 9053 9327 9501 8520 3369 
983 4644 5676 8264 8151 7135 2601 3102 1781 
2260 5895 6262 8838 4826 6323 2554 543 8321 
168 239 2810 3193 5738 4973 5752 7096 2065 
82 3412 4311 9823 6223 8455 7262 5661 2754 
4658 8705 732 5750 2641 5784 2818 1885 1539 
6113 1511 5840 3823 3677 1290 2692 6845 3815 
5867 8182 5057 8025 7526 1538 1429 8585 5296 
7715 7716 7944 5352 1544 328 6772 7237 8181 
8677 683 3572 1773 8557 5282 7630 6745 8116 
8988 6996 7845 7552 1185 5860 1846 1705 6770 
6627 8862 148 1606 3596 4466 8113 5816 6820 
590 7080 4473 5458 573 4275 6375 9404 6268 
8167 3611 4509 3430 6881 9471 5855 7560 576 
3275 16 7826 7599 3742 3929 1514 3498 5820 
7637 6871 6468 309 4733 1927 734 1305 6927 
5292 9278 3726 1469 2295 7067 6785 594 3380 
507 2806 8894 7190 6314 7922 1788 1808 18 
6168 8715 8695 5542 3017 3930 3863 2158 4188 
5974 6144 5575 1586 1894 2725 8546 7678 5549 
8027 8660 7589 1676 3059 6267 7778 9449 7970 
8684 7581 9336 3038 7923 6855 6277 1471 143 
5295 9361 8183 5414 3961 155 3128 5977 8414 
6791 1386 172 4788 9396 8194 6900 4431 4212 
275 8124 8793 7705 5026 7780 7471 5180 3969 
9486 5431 7532 8617 6503 4701 3483 2999 4541 
8293 8394 2814 3980 3869 5918 5246 5223 5426 
5216 1760 6244 4839 7 5651 9295 5236 7927 
4574 1078 759 8994 6679 8290 5184 5540 9032 
8338 7357 6357 3383 519 1111 8683 2872 5944 
6555 8464 8216 3044 4293 399 728 703 6120 
7662 7596 5550 6250 4085 1412 6612 452 7039 
7154 8427 9114 6100 6216 6261 6751 3259 1548 
7582 6257 7321 8368 8700 637 6029 8138 5286 
8664 7680 73 78 8232 5984 8239 7973 7466 
5926 2290 2561 8019 4621 6153 8790 5480 6190 
6767 233 405 5721 9240 5832 7264 5807 8516 
6844 5845 5775 821 2516 7823 1771 9845 6561 
5529 4463 5582 4184 5961 6228 5927 5160 6945 
5980 2116 194 1827 5453 9304 5369 2036 2648 
8638 9359 6641 5038 4488 575 7557 6551 5280 
7112 3776 3764 1756 4121 5233 9450 5168 4995 
2729 131 347 6538 5478 5381 6170 7799 2118 
9291 2211 8766 6988 9190 5971 8680 6454 4734 
4313 986 7258 7480 6837 8241 9072 7157 9187 
1667 2079 9470 3216 5952 7830 265 9090 3045 
4264 2418 1201 9330 5264 7828 7488 9333 8512 
9254 8415 5682 4125 1402 5997 8821 2788 7209 
7825 8169 7650 6427 3270 4766 2563 6782 7710 
9042 8905 7014 3355 263 7027 7442 4706 5508 
7277 6012 8245 7319 9111 2001 4134 5685 6469 
7886 9318 8706 1972 2465 8153 4127 6534 7248 
7053 5308 7287 2730 9434 7202 6544 6455 4864 
2836 3846 8440 8754 6419 6591 1518 9349 6983 
7107 6309 5228 8526 3616 2131 6712 5290 981 
1358 6592 8343 6907 8439 1779 209 1800 6978 
6254 8696 5501 8499 8505 305 1075 144 6815 
7434 8382 6775 2271 6452 1749 2326 5972 5354 
9203 7322 3272 3711 3482 7528 8613 6356 7547 
8899 9382 581 5489 4713 6338 8437 3143 1963 
3499 4009 5342 8721 6416 9375 3889 6632 6441 
5920 7242 9442 6335 4841 1731 5118 9268 327 
9482 9224 5706 5389 9453 4821 8619 9083 8255 
5875 7200 6302 6245 6471 7429 1744 884 2637 
752 7647 2626 2907 1491 2698 5568 8175 6405 
7544 7960 5161 4545 1889 929 1459 364 6164 
6692 8146 4480 5658 6995 9483 5966 2608 3385 
906 3871 3582 7398 5793 356 518 6887 8502 
9081 9363 7491 8230 926 8576 1127 9715 7738 
5849 8060 9192 3076 1939 2876 7731 6628 7832 
9071 8076 5681 4591 2420 6401 6532 6464 8816 
6107 5795 8095 6368 4962 6530 7931 9403 5460 
9046 931 1023 6673 6355 8405 6033 7300 9306 
4925 1989 9300 8112 8648 6929 3141 1303 6489 
7696 6094 6732 6059 5084 8327 1072 994 295 
8336 7436 7804 9926 3988 1244 730 3950 5402 
6233 5708 910 4106 223 5938 5627 5495 6295 
7441 7583 5411 1487 312 2145 7068 7722 7782 
4932 2714 5092 5482 9022 5929 6349 3565 4248 
4631 4577 1881 4389 105 9455 5443 5835 9668 
3261 3497 2808 1019 5891 7735 8279 3033 4287 
2448 106 5880 5107 9204 3156 2857 9418 5701 
7610 6539 5859 6481 2693 5630 9250 3697 8157 
6547 5925 7572 4202 7900 5703 7941 7222 8029 
8104 2107 3236 5278 8834 659 8601 7453 6370 
8108 6159 1114 7588 6260 5100 5235 5802 1884 
4820 5780 7818 2558 141 7368 7207 9283 8234 
7091 2504 3829 3170 9214 5830 8407 3240 3578 
1666 3328 5543 6546 8903 9392 2248 3125 4684 
9485 7285 5115 5117 1194 762 2012 9139 2902 
9176 9425 8928 5017 119 766 3683 2351 8186 
6442 6342 5827 4300 384 2302 3152 1478 5470 
8646 5722 6854 1166 4346 4687 4515 3658 5815 
5731 4800 1526 7181 8204 8568 9448 2676 92 
7327 3568 6173 9492 1043 7113 3800 5904 7695 
7406 5652 8319 4461 3267 4017 4920 5079 5251 
6654 8514 9044 2930 2890 7548 8038 6691 7273 
7375 7525 3807 286 3129 9292 6135 8114 7394 
9037 9950 4895 978 9126 6154 8317 8040 5804 
7688 2337 4865 779 5803 5586 8548 797 3063 
7326 5968 7515 6209 2543 2208 1912 7660 9491 
7654 9365 9431 6813 692 6952 2695 7140 6565 
3095 2425 8936 9469 6647 8598 6622 6377 2231 
1312 4069 4897 5483 6052 2384 4460 3396 835 
5951 8395 1830 8892 4130 737 6317 6553 8596 
9003 230 7148 7739 5479 8446 5691 8549 8422 
6032 6698 9334 2245 7860 7404 8819 8423 8105 
7519 4131 8911 7964 6404 1645 6438 8609 5432 
1323 5380 4817 8310 8224 7699 7015 7414 7779 
9953 8727 1066 4910 8751 1838 6300 9466 8284 
9760 9387 6215 2844 5166 9422 246 7611 3749 
3315 6890 9319 9682 4808 953 3890 6594 9194 
415 2170 8893 1131 812 1375 9305 5781 5424 
4998 8474 815 4816 6149 744 9000 8556 9611 
8855 4650 8719 8922 9366 255 7858 8840 8851 
2611 5557 9737 46 6485 5031 6972 6916 4884 
2905 6298 941 8308 6014 9481 9876 7087 778 
9125 6478 1046 9045 6623 5732 9992 6597 5594 
3734 4452 1868 5442 7668 7343 9435 7675 7385 
9352 5874 8757 9609 7474 9979 8152 9235 7210 
8825 9357 6656 2201 8791 7422 7456 9510 7018 
9018 9717 5062 584 3316 1571 1842 5015 753 
6599 8951 7812 7714 6714 8529 3485 1276 2331 
4777 8082 7337 7980 5047 6157 7990 3860 5930 
5559 6702 4755 3756 2443 7553 7786 5238 4698 
4555 2615 71 6705 8813 5064 5063 5083 1785 
2307 1559 2924 5745 736 2382 1739 419 4792 
5366 8916 5773 8100 8605 7601 7718 4220 1316 
4402 1652 3300 7204 7856 5163 1938 2238 1603 
777 5995 5145 8973 2519 80 8859 1230 2203 
7304 9443 5553 9177 4799 2068 7094 4819 7475 
6313 8735 2081 2967 1452 9011 8534 7994 8725 
1218 3672 613 9293 5889 553 650 5917 7807 
7507 6122 5570 3434 1980 8618 6868 8123 6229 
6970 6650 8844 2475 1722 1906 3606 5778 6431 
9270 6835 5506 4944 5654 7225 4246 4263 2428 
474 7953 4175 763 496 9438 7697 9488 7362 
2943 3050 4812 3500 7118 8863 9006 7332 4377 
3142 947 7717 7556 995 2099 2071 3494 1422 
7177 5147 6400 5931 1686 2803 769 2232 7620 
8662 6167 408 3423 585 817 7431 1009 8845 
8391 3426 2842 853 157 1468 9325 708 2162 
4096 5503 7206 6039 6232 3576 334 772 4030 
973 8989 8674 6629 3065 1662 1993 1415 7752 
5720 6097 2409 5571 5307 7652 7482 6781 7430 
5334 1189 3438 6822 3393 2581 109 3153 6311 
6379 7609 5684 2829 2249 4233 7503 5365 8552 
9131 5908 4991 6720 7938 2893 3849 1765 4316 
9201 8897 6634 1988 2161 8527 4155 2565 8431 
5970 5633 5866 7072 2199 974 1649 2903 6362 
3589 5822 798 7045 8799 6391 4918 566 2961 
4355 339 4773 162 4072 9215 7997 491 3910 
4027 2354 47 3905 5825 237 9414 7571 4878 
479 4445 3179 2257 5297 1050 3386 7850 5456 
7082 1180 2702 4304 606 9062 5994 9196 4840 
3631 2524 3452 5799 5136 1863 3946 459 4876 
4379 8521 5725 5156 3189 2723 4112 2864 2035 
2763 5768 7071 6286 2197 4711 6812 6447 5073 
7255 3400 2336 3763 3361 7878 8229 7384 7634 
8360 1515 6902 3979 8930 7230 9504 8981 3702 
5555 140 9369 7698 1490 5841 4119 5589 1475 
2236 13 7261 4972 2642 2020 3874 3997 1031 
3960 2402 928 4988 4746 169 2047 2526 1277 
2077 5497 4330 939 4686 977 55 8795 7749 
2728 2832 6966 1202 466 2275 5396 1195 5454 
2658 6206 4205 3453 3345 502 605 284 701 
3265 4215 5671 1333 1759 7050 1825 3234 1136 
1055 244 4696 9400 6448 3421 2607 2097 5240 
1702 722 7851 804 3144 269 5089 6963 8661 
8920 4749 3303 2548 5693 1243 5164 1824 3645 
3098 4590 4494 2450 1012 6498 2664 3301 741 
3394 2218 5809 1181 8145 6047 2286 3824 2414 
8173 2696 5075 2802 6778 6273 3472 4160 3106 
1424 1324 8835 1206 2157 6625 3481 133 2753 
7497 1322 4911 4514 1361 2274 3433 490 7719 
2103 4256 610 1328 6072 3680 5416 1372 1706 
3024 2280 4643 2783 2411 6560 3602 5218 4416 
4035 4879 8340 349 609 8939 5779 2735 3358 
4663 3786 1635 3803 1271 3714 5960 1406 1588 
1318 2699 5672 4824 8587 3878 2421 3327 2631 
2537 3365 1122 4742 256 2130 8868 3470 3487 
2640 3904 1616 3580 7035 3862 4028 2321 3207 
1162 2592 4 1734 2721 482 3518 4855 7790 
4601 3231 4343 1217 3754 388 3054 2379 4109 
2786 214 2413 2225 1973 3051 1140 438 4697 
4804 2471 1069 9374 3957 5214 2596 4964 371 
2006 3073 4510 4806 4524 8804 1580 1784 1371 
3549 1921 3151 3437 6836 3783 1642 3667 2667 
4423 4497 2604 126 8470 3724 894 1869 6332 
3503 4904 1065 4040 4406 3915 2978 437 394 
1857 4905 4391 1841 2367 3600 4376 3919 4501 
664 3244 4193 3839 4891 4419 1345 3298 1813 
4664 306 3235 136 1904 176 2556 4825 316 
4087 8086 3148 4831 4857 4281 3475 1944 4348 
1787 101 4655 6934 2114 4634 3370 9115 6009 
7605 4499 2085 988 3159 943 1150 359 414 
2476 4433 4741 278 1120 2915 1015 4225 1100 
4326 1325 3806 1382 1879 1294 9321 2447 3525 
2995 6197 3454 4511 4083 3069 2656 484 1704 
3715 3837 3478 3172 341 4818 2845 6095 149 
37 3868 26 4764 1096 163 773 4149 4716 
3984 21 3865 935 691 1123 4258 2205 2922 
2928 1472 970 180 3169 3767 3032 513 4616 
6518 564 4827 4852 1607 1738 3132 3761 4778 
3944 3294 380 3533 6486 1530 434 645 1855 
3035 6096 1537 3684 8580 4512 1177 2416 827 
3146 6476 4093 1960 2751 542 748 4449 5821 
4385 2096 1139 2444 387 1182 998 1390 4338 
3948 1558 1453 348 3055 279 1945 3517 9117 
2697 2393 1848 3461 5798 8170 1568 3801 1639 
6687 4180 3309 1579 2051 7796 2102 150 646 
1720 1701 3577 3508 245 2635 1426 3939 4166 
1661 2713 2888 2459 1341 3257 1489 638 3696 
1209 1377 2200 130 1697 4153 2955 3560 665 
1593 2874 4108 4084 2152 8880 2310 450 2666 
3536 987 2193 2509 706 2394 124 1440 1971 
1360 2220 1461 3334 2451 2887 4652 1083 809 
3018 751 1613 4057 4440 1102 4251 4794 1394 
2389 3252 4082 3530 1231 5563 3397 3130 2948 
1113 3698 3074 4870 803 4596 1275 74 9034 
2360 3928 527 1569 717 3212 1369 796 4067 
242 2342 2388 3641 3654 8923 441 816 2921 
2868 2568 1059 2481 1555 463 5001 3579 1103 
654 2186 4517 1156 2007 3857 2662 451 3462 
3147 4435 220 2100 4273 1948 2908 4457 4718 
3097 1474 1286 1561 4217 3443 2835 4560 726 
4262 2277 401 3040 1505 2124 1900 4709 292 
4626 4031 2221 3918 1926 1157 3390 3906 2889 
1994 5321 2292 1301 4056 3133 3692 351 4907 
2452 3895 3009 4489 2748 4851 2507 3609 4909 
4506 4636 2799 4883 1 1173 174 2674 2371 
2600 1865 1703 4234 3817 3639 1651 8984 761 
2632 4787 159 3633 4126 487 3003 3043 4179 
2933 3036 2605 1272 885 3891 3047 3313 2891 
2851 3357 455 8370 4116 266 3158 675 2503 
3994 4340 3420 2938 2149 1809 1997 3539 4089 
1347 3990 3070 2399 3199 5876 4485 2104 23 
1602 1365 3686 1255 4669 3663 4811 268 937 
460 3543 3902 1462 3792 1981 1903 1983 1340 
1398 3519 1330 1005 861 3391 3592 4795 3243 
1689 2312 2826 1106 714 2734 3308 4801 4677 
4146 1257 3273 3323 9 4645 1774 22 4173 
1513 4873 1370 934 4113 4649 4204 1856 4648 
3932 1190 8134 1557 431 4229 1718 204 871 
1619 1267 1392 6888 8966 3725 2501 522 791 
3599 2514 4174 3981 2243 1970 3307 4016 3020 
2636 4660 1640 1339 4630 2380 3853 4798 991 
4114 4508 6203 2462 3344 226 1876 2083 1890 
849 3218 2322 1374 2974 4747 2839 1940 3638 
4606 3955 1183 3075 3103 2998 9239 322 4242 
3223 623 154 789 1590 257 476 2439 4859 
3177 2087 2811 1070 2473 952 2709 1425 1577 
4656 3429 1212 3825 421 3342 1081 1958 2123 
2009 2177 3653 273 4689 2884 3245 2804 4414 
161 608 1014 1421 4002 3419 4605 3099 86 
2089 2491 4869 4373 2173 1016 4164 1192 254 
3408 3371 949 2138 5 3840 3552 3352 2242 
139 3201 4037 2445 3362 1990 3983 2703 259 
4025 930 4235 3289 1309 2873 4691 4081 6425 
2849 4661 3435 2588 2574 3410 2562 4571 1776 