# vtk DataFile Version 4.2
Generated by LIGGGHTS
ASCII
DATASET POLYDATA
POINTS 10000 float
-0.00417214 0.00090428 -0.040887 -0.00217278 0.000895352 -0.0410458 0.000259661 0.00094524 -0.0411037 
0.0021817 0.00113173 -0.0410437 -0.00552209 0.00231785 -0.0407297 -0.000569182 0.00262492 -0.0410952 
0.00129049 0.00269302 -0.0410839 -0.00383226 0.00311689 -0.0409272 -0.00204942 0.00364986 -0.0410577 
0.00307754 0.00281503 -0.0409921 -0.00646377 0.00516498 -0.0405929 -0.00306592 0.0051298 -0.0409489 
0.000166592 0.00428286 -0.0410989 0.00205804 0.00431705 -0.0410504 -0.00458824 0.00608263 -0.0408522 
-0.00128438 0.00534714 -0.0410791 0.00164075 0.00606718 -0.0410704 -0.00234148 0.00680335 -0.0410397 
-0.00036082 0.00693478 -0.0411009 -0.006663 0.00865603 -0.0405662 -0.00457051 0.00810144 -0.0408443 
0.000877521 0.00823585 -0.0410947 0.00260454 0.00775963 -0.0410149 -0.00489235 0.00987418 -0.0408106 
-0.000654483 0.0091643 -0.0411024 0.000924814 0.0100336 -0.0410938 0.0027245 0.00984942 -0.0410153 
-0.00664874 0.0104474 -0.040564 -0.00306589 0.0101072 -0.0409926 -0.00105581 0.0109255 -0.041092 
-0.00532897 0.0116442 -0.0407566 0.000823204 0.0118389 -0.0410931 -0.00571351 0.0133985 -0.0407052 
-0.00394367 0.0127765 -0.0409091 -0.00220869 0.0132192 -0.0410452 0.00270705 0.0133664 -0.0410186 
-0.00433092 0.0145319 -0.0408767 -0.000819887 0.0145126 -0.041095 0.0010044 0.0139484 -0.0410918 
-0.00657729 0.0154287 -0.0405767 -0.00317775 0.0159229 -0.0409849 0.00105862 0.0157732 -0.0410854 
-0.0012815 0.0162491 -0.0410845 -0.00615739 0.0173962 -0.0406371 -0.00436695 0.0177302 -0.040865 
-0.00248692 0.0175929 -0.0410239 0.00138615 0.0175541 -0.0410769 -0.00588707 0.0191851 -0.0406799 
-0.00333925 0.0192012 -0.0409672 -0.00154293 0.0191605 -0.0410714 0.000522839 0.0191392 -0.041107 
0.00231286 0.0192048 -0.0410402 -0.0128185 0.00128184 -0.0390578 -0.0111368 0.000894292 -0.0395619 
-0.00939198 0.00089948 -0.0400124 -0.00700953 0.00121624 -0.0405077 -0.00547146 0.000895405 -0.0396347 
0.00397272 0.00119786 -0.0409102 0.00578617 0.00121615 -0.0406935 0.00783572 0.000898797 -0.0403541 
-0.010884 0.00266751 -0.0396339 -0.00830884 0.00233578 -0.0399745 -0.0018917 0.00226925 -0.0399272 
0.00486187 0.00275497 -0.0408163 0.00872647 0.00259605 -0.0401719 -0.0125636 0.00305667 -0.0391381 
-0.00625775 0.00359716 -0.0397052 -0.000858319 0.00375512 -0.0397159 -0.00997718 0.00419506 -0.039875 
-0.00787621 0.00403989 -0.0403451 -0.00471873 0.00443701 -0.0400965 0.00420531 0.00467492 -0.0408878 
0.00567787 0.00413483 -0.0400086 0.00741846 0.00406094 -0.0404314 -0.0111023 0.00591816 -0.0395761 
-0.00936516 0.00587502 -0.0400212 0.000334978 0.00570085 -0.0398937 0.0028354 0.00536087 -0.0398124 
0.00379974 0.00642445 -0.0409242 0.00532837 0.00589113 -0.0401458 0.00709298 0.00582689 -0.0404848 
-0.0122376 0.00732056 -0.0392376 -0.00774615 0.00656176 -0.0403675 -0.00596017 0.00704413 -0.0402315 
-0.00333821 0.0074077 -0.0396799 -0.00127625 0.00644865 -0.0396377 0.00145303 0.00723383 -0.0397181 
0.00592202 0.00750305 -0.0406709 0.00872221 0.00653436 -0.0401675 -0.0107085 0.00814821 -0.0396817 
-0.00837506 0.0082415 -0.0402459 -0.00223328 0.00852634 -0.0405473 0.00430682 0.00831513 -0.0408766 
0.00790763 0.00823761 -0.0403376 -0.0114757 0.00980273 -0.0394653 -0.00768359 0.00963623 -0.0393519 
-0.00137458 0.00991383 -0.039648 0.00635074 0.00924642 -0.0406149 0.00854283 0.00992996 -0.040205 
-0.00918567 0.0103195 -0.0400656 0.000107147 0.0109197 -0.0397204 0.00188606 0.0109914 -0.0399143 
0.00485122 0.0106324 -0.0408199 0.00705442 0.0108957 -0.040495 -0.0123048 0.011622 -0.0392211 
-0.0106062 0.011358 -0.0397149 -0.00886928 0.012087 -0.0401371 -0.00703119 0.0121975 -0.0404926 
-0.00380234 0.011297 -0.0398735 -0.00208296 0.0118219 -0.0399204 0.00319547 0.011605 -0.0409778 
0.0054354 0.0123258 -0.0407404 -0.0109455 0.0131222 -0.0396148 -0.000291667 0.0129972 -0.0402902 
0.00159993 0.012756 -0.0397552 0.00717431 0.0126851 -0.0404743 -0.0121514 0.0147585 -0.0392718 
-0.00933921 0.0138153 -0.0400283 -0.00723141 0.013868 -0.0398697 0.00443903 0.0138123 -0.0408635 
0.00604872 0.0145805 -0.0406552 0.00896531 0.0141205 -0.0401157 -0.0104855 0.0152293 -0.0397435 
-0.00830608 0.0152785 -0.0401303 -0.00201481 0.0152253 -0.0398098 0.00310663 0.0151477 -0.0409862 
0.00474535 0.0159315 -0.0408258 0.00840084 0.0158802 -0.0402322 -0.00932178 0.0165431 -0.0393706 
-0.00788688 0.0170117 -0.0403394 -0.00475542 0.0161224 -0.0401621 0.00663109 0.0161376 -0.039975 
-0.0113613 0.0175691 -0.0395037 -0.00920705 0.0181993 -0.0400556 -0.000331581 0.0176686 -0.0405386 
0.0033053 0.0177085 -0.0409703 0.00560512 0.0175528 -0.0407215 0.00747481 0.017663 -0.0404079 
-0.0123894 0.0191981 -0.039193 -0.010651 0.0192049 -0.0396964 -0.00765729 0.0190402 -0.0403932 
-0.00439132 0.019205 -0.0395122 0.00430962 0.0191979 -0.0408733 0.00654129 0.0191981 -0.0405821 
0.00848335 0.0191371 -0.0402212 -0.0152402 0.000895313 -0.0381801 -0.00736072 0.000896499 -0.0387859 
-0.00304826 0.00089959 -0.039475 -0.00053522 0.000899343 -0.0394982 0.00125866 0.000893956 -0.0395215 
0.00303352 0.0011039 -0.039383 0.0048072 0.000893901 -0.0392236 0.00668685 0.000894025 -0.0389824 
0.0100231 0.000961862 -0.0398641 0.0123817 0.000904168 -0.0391969 -0.0141583 0.00238022 -0.0385877 
-0.0094666 0.00227821 -0.0386012 -0.00595261 0.00224506 -0.0385502 -0.00427172 0.00221739 -0.0394414 
-0.00282208 0.00231665 -0.0383895 -0.000983585 0.00249256 -0.0383994 0.000369959 0.00245119 -0.0395681 
0.00217874 0.00268347 -0.0394521 0.00537061 0.00259169 -0.039103 0.00696245 0.00240627 -0.0399074 
0.0111457 0.00234357 -0.0395602 -0.0157526 0.0029231 -0.037963 -0.00863276 0.00386061 -0.0387359 
-0.0029225 0.00373809 -0.039497 0.00400681 0.00377925 -0.0393476 0.0100649 0.00375746 -0.039848 
-0.0148253 0.00441498 -0.0383356 -0.0131606 0.00473933 -0.0389377 -0.011415 0.00437216 -0.0387185 
0.00107949 0.00410183 -0.0395569 0.00869033 0.00484643 -0.0394336 0.0118543 0.00500599 -0.0393582 
-0.01539 0.0062651 -0.0381189 -0.0121148 0.00594159 -0.0380893 -0.00901146 0.00553832 -0.0382223 
-0.00747685 0.00529177 -0.0391206 -0.00573458 0.00571833 -0.0390402 -0.00394665 0.0057897 -0.0392062 
-0.00229217 0.00525509 -0.0387678 0.00156834 0.00573737 -0.038588 0.00427438 0.00549773 -0.0387436 
0.0102464 0.00566287 -0.0398046 -0.0137173 0.0064342 -0.0387458 -0.0104062 0.00678808 -0.0381709 
-0.00880165 0.00720345 -0.0388519 -0.00701483 0.00699288 -0.0387884 -0.00492522 0.00755949 -0.0388574 
0.0030282 0.00690932 -0.0389216 0.00469255 0.00743021 -0.0393608 0.0073235 0.00701666 -0.0391572 
0.0108364 0.00735218 -0.0396511 -0.0160538 0.00855866 -0.0378426 -0.0144547 0.00804815 -0.038476 
-0.0114653 0.0086111 -0.0381169 -0.0018337 0.00797991 -0.0388814 -0.000195135 0.00793888 -0.0396137 
0.00306852 0.00878535 -0.0396122 0.00614724 0.00831429 -0.0387828 0.0124776 0.00789581 -0.0391638 
-0.0148477 0.00979555 -0.0383266 -0.012997 0.0089671 -0.0389908 -0.00930924 0.00895686 -0.0389001 
-0.00609452 0.00892267 -0.0388899 -0.00308173 0.00950171 -0.0393043 0.0011197 0.00916168 -0.0395396 
0.00491534 0.00936515 -0.0395525 0.00714034 0.00977881 -0.0390926 0.0100257 0.00896895 -0.0398635 
0.0116913 0.00959009 -0.0394042 -0.0102455 0.0103538 -0.0382705 -0.0083813 0.0111485 -0.0386908 
-0.00532049 0.0105913 -0.0392219 0.00359094 0.0105772 -0.0395516 0.00583439 0.0110836 -0.0391988 
0.0101081 0.0108419 -0.0398393 -0.0156421 0.011398 -0.0380088 -0.0139762 0.0113279 -0.0386602 
-0.00981876 0.0121611 -0.0383193 -0.00667378 0.0116966 -0.0388026 -0.000749594 0.0121721 -0.0387652 
0.00406197 0.012331 -0.0395789 0.00852533 0.0116919 -0.0398316 0.0117048 0.0115438 -0.0393968 
-0.0163623 0.0131965 -0.0377017 -0.0147166 0.0129402 -0.0383831 -0.0130487 0.0132343 -0.0389764 
-0.00829247 0.0130318 -0.038689 -0.00658787 0.0134077 -0.0382565 -0.00506998 0.0125727 -0.0392381 
-0.00327278 0.0125955 -0.0387549 -0.00179843 0.0135132 -0.0393235 0.00300865 0.0135221 -0.0385849 
0.00539462 0.0135194 -0.0393611 0.0103246 0.0126982 -0.0397829 -0.014078 0.0148597 -0.0386156 
-0.0109228 0.0144386 -0.0380003 -0.0092378 0.0147754 -0.0385187 -0.00543924 0.0143854 -0.0392324 
-0.00346927 0.0142862 -0.0393268 0.000230352 0.0146699 -0.0396434 0.00201762 0.014504 -0.0397143 
0.00401449 0.014767 -0.039408 0.00730559 0.0141499 -0.039446 -0.0162343 0.0149926 -0.0377616 
-0.00745097 0.0149794 -0.0384721 -0.00608456 0.0160401 -0.0389654 -0.00435317 0.0156056 -0.0384898 
0.0104246 0.0151009 -0.0397629 0.0121437 0.0153925 -0.0392661 -0.0152201 0.0164118 -0.038184 
-0.0130474 0.0162903 -0.0389759 -0.0113377 0.0161278 -0.0384406 -0.00319803 0.0166727 -0.0393566 
-0.000565121 0.0162686 -0.0394347 0.00128016 0.0160881 -0.0392972 0.0033636 0.0164105 -0.0397336 
0.00506975 0.0162737 -0.0390908 0.0109932 0.0167964 -0.0396058 -0.0153475 0.0182044 -0.0381339 
-0.0124793 0.017765 -0.0381155 -0.0101882 0.0175074 -0.0381382 -0.00696043 0.0176446 -0.0389372 
-0.00510692 0.0175909 -0.0391916 -0.00278217 0.0184145 -0.0394504 -0.00169134 0.0173302 -0.0385195 
0.000540624 0.0176912 -0.0389675 0.00233819 0.0176745 -0.0389691 0.00436379 0.0178797 -0.0394704 
0.00943857 0.017604 -0.0400044 -0.013847 0.0192012 -0.0381449 -0.00959932 0.0192013 -0.0382351 
-0.00784826 0.0192106 -0.0386295 -0.00607595 0.0192065 -0.0388956 -0.000449622 0.0192036 -0.0396119 
0.00135946 0.0191962 -0.039518 0.00315332 0.0192022 -0.0394549 0.0055695 0.0192072 -0.0390779 
0.00730745 0.0187787 -0.0389186 0.0102451 0.0191987 -0.0398058 0.011976 0.0191653 -0.0393194 
-0.0183046 0.000894597 -0.0368037 -0.0167866 0.00152389 -0.0375183 -0.0131866 0.000890542 -0.0373513 
-0.0103864 0.000894979 -0.0379263 -0.00863358 0.000897045 -0.0375244 -0.00627534 0.000896994 -0.0373637 
-0.00434762 0.000896124 -0.0382294 -0.00175557 0.000890034 -0.0381877 0.00119948 0.00105072 -0.0377339 
0.00298517 0.000894906 -0.0375963 0.00555737 0.000895363 -0.0375943 0.00870573 0.00148384 -0.0387635 
[...]
POINT_DATA 10000
FIELD FieldData 7
id 1 10000 int
4034 9506 7173 296 6432 1149 6610 328 9793 
7352 6320 5077 7892 5199 13 6106 5261 3972 
7868 7072 9159 3038 5967 9993 3969 9821 33 
9350 4444 4000 5220 3004 6390 919 434 1239 
9808 8062 7500 2810 9385 5619 2058 2536 1781 
8283 9573 8338 2211 9559 6198 7172 4040 4529 
5042 6662 5709 4511 6465 1116 480 8221 7272 
1382 9618 8818 1667 7393 5326 3052 4723 8501 
3624 9835 9212 5291 6010 7694 5700 99 6502 
2303 6378 3187 9637 9888 2220 8408 5134 7302 
189 6554 4274 9917 3191 3240 4679 9820 753 
6008 5828 147 3949 5656 1823 6801 3663 3076 
8049 9477 1151 2608 4222 1698 6492 4830 1927 
7468 255 5674 3863 9480 695 2767 9720 5270 
5925 3247 1609 1539 9314 4038 3496 9780 4097 
594 7134 2286 7820 1939 7195 2855 6539 2711 
61 2166 9249 8318 2569 5010 4877 1276 4442 
6559 6558 9944 1535 9874 8029 6728 9842 362 
5797 9692 8458 3881 4848 4521 3728 2805 9898 
4177 323 8922 7413 7947 6424 5854 3100 7409 
6150 8867 3665 4333 9264 6729 8919 926 3652 
9540 4651 6070 3037 9077 5831 9691 4330 1676 
7568 9367 5415 4187 7586 3291 7391 683 1022 
9818 897 3605 2294 3272 7703 9881 5588 9958 
1454 2663 6140 7578 3355 3709 2895 5177 8430 
3014 6849 6065 8069 5505 4089 131 8295 2499 
2049 6236 3547 1521 8744 8044 3058 783 4950 
1699 4603 5760 3467 2525 3716 1288 1391 7576 
8827 8902 259 8767 847 6420 6282 3393 7713 
3713 7376 1583 9076 9120 7910 5210 2859 6649 
132 4048 1334 1263 1218 3979 7341 9781 8736 
3241 7614 2689 9687 6417 9324 9724 280 8890 
2851 7269 2775 9660 2511 2161 4535 1158 755 
6328 7196 3671 7093 6269 8738 1654 6601 8977 
7256 9464 7948 504 6575 7278 3343 7422 6490 
9973 3682 8726 9927 2108 5405 901 9833 892 
9388 5524 544 3204 948 145 2315 9092 6345 
5591 5847 9231 3465 7842 5198 8347 931 9035 
2184 2690 9542 9758 6633 5521 9590 6737 8393 
5647 9792 7447 6873 7643 8091 3231 7933 9748 
3942 8400 4241 492 6883 1875 3771 9756 9050 
2739 9516 5626 8953 2159 2489 1810 5678 5378 
679 6230 5268 4019 4794 294 2392 2422 2054 
1919 1388 8856 3753 9771 2368 1083 1097 9739 
3797 314 2034 3717 9279 7171 9373 343 2120 
8254 5504 6877 1075 1483 3200 2453 8350 6102 
9475 8060 9082 1115 3108 3968 1510 9972 1181 
5429 9709 2062 6811 8162 1168 3630 6934 6652 
2253 8812 2825 639 878 2769 9441 7555 8303 
7922 6693 9305 3679 7190 8784 7294 6694 3793 
9470 1471 7273 6350 4700 7884 8114 8996 368 
6768 3480 5285 7158 6281 7764 4285 6612 4018 
3720 9503 1059 7556 3336 6986 7373 4024 9085 
9747 3777 2466 7896 3237 6275 3062 6433 7018 
8431 5209 2612 9206 2671 6616 9638 128 7997 
6667 7336 7024 9089 1072 8140 8352 3849 5440 
4591 8448 9298 9878 7505 7259 6288 5211 9897 
7469 6248 6287 3830 5299 5176 1427 790 9886 
4703 9729 7492 4246 1860 1046 693 9060 3779 
3181 6376 2571 8440 2914 2335 8166 2265 9848 
9735 4384 7894 2235 9836 9744 5441 1380 8457 
4583 9770 5989 3820 6057 7646 7097 6678 1283 
6 397 8434 6834 9551 6055 9465 7966 3631 
4842 1933 3148 5485 1537 3613 8880 3780 1355 
6517 7972 1396 7019 6292 9933 9892 1447 698 
2327 6352 7738 1788 5554 4027 3815 5387 6809 
9984 351 9971 9824 7763 1744 5400 7404 4376 
6698 1050 4528 6280 3561 6273 8696 1507 2158 
9233 7734 2966 454 5181 1631 7566 751 7824 
7449 9634 6910 1925 8673 7484 5541 7612 5008 
2046 2078 7456 8452 403 545 4245 4538 1284 
4157 7132 234 6959 9832 4059 9479 2304 8211 
9219 893 6429 8588 7007 3939 7277 9752 8931 
1279 6089 6680 2141 2106 2477 3744 9730 7371 
4041 844 5385 153 3084 2552 4625 6265 9948 
8643 9934 2140 6723 1346 9148 3557 6439 8032 
4129 8139 5783 617 1538 1245 6473 9500 7063 
8507 6627 2136 4086 2527 8081 1608 6034 2986 
5574 8608 5894 7022 5453 4265 8061 9557 7038 
2105 2215 6003 4698 7900 5248 4122 889 423 
3888 7621 6472 9651 6332 2852 8260 69 4860 
8337 487 776 7976 7048 3978 4199 1485 6181 
1956 9987 5123 8018 1613 5397 8571 7305 968 
756 8708 6674 9113 1522 426 1757 9923 5325 
9855 9612 712 4699 4188 2982 7148 8043 3483 
2997 2434 3723 3335 9631 1798 345 2363 7265 
8156 1885 2742 1020 8247 6589 1900 7485 6933 
2747 2976 8910 4420 3383 9819 1185 4039 9802 
9777 738 5217 6512 2311 4047 8102 8331 7009 
555 5136 6032 7834 6306 3600 2067 6022 7231 
206 1190 2587 4859 4492 4781 5281 860 2139 
1437 3333 7798 5251 4010 5234 5358 3078 1891 
7 8926 8330 2433 2900 2871 6047 7610 4675 
1188 5470 6912 831 2893 6210 4141 615 6162 
1957 7704 2822 6584 5389 5579 2024 490 671 
5498 9253 7032 2518 917 8743 4883 3997 6103 
3901 2053 7346 3528 9546 3766 3217 1573 3469 
7226 9779 2870 3545 7121 119 1103 9332 9353 
9703 9214 8719 6451 6334 9954 8009 5666 9593 
6817 4721 9189 7138 1470 7287 636 1004 726 
2728 7979 2261 2817 2409 3236 7239 3835 6342 
7185 7291 1085 9205 8270 2470 2045 9250 935 
3616 4910 3926 3235 2532 6596 261 2624 7712 
7025 8629 8465 5982 8322 4407 2376 8788 9899 
9389 2987 9872 2704 3688 9528 1442 3411 748 
1271 7108 2628 6915 8972 5942 9937 7888 2791 
7784 6271 9765 5587 3573 5364 2843 4576 7723 
1520 1261 7571 9111 4786 3268 3075 9062 8291 
1685 8803 2100 8186 9568 9585 4509 243 367 
3441 1420 1231 8811 2577 3944 6412 2025 9343 
3834 807 3168 1547 8679 3768 3486 275 24 
3000 482 5763 7057 5036 1180 7066 1066 8226 
1777 3274 8909 9790 6628 6668 6739 3292 9577 
598 9828 8216 3970 1857 8240 6684 8168 7924 
2790 7475 6744 6299 8705 6569 7691 2693 4402 
7954 9081 9290 7420 7241 6903 7531 9524 4449 
8145 6120 4167 1999 2476 2226 5052 3447 2216 
3737 6902 5635 3455 4631 5692 7220 6510 258 
2915 9450 2544 3971 3610 8599 5651 6394 1242 
8157 5051 3731 8006 2748 5990 6475 1711 6634 
5549 579 3984 1481 8605 5497 9209 6107 6564 
7944 9384 5937 225 8427 3983 1907 8885 3810 
1329 4527 9697 451 2020 6748 8441 1612 9839 
5976 5781 1775 3289 6824 2500 8416 4507 2616 
641 666 4154 1963 1366 843 6823 2845 178 
274 930 3506 1341 3553 541 3459 19 5876 
8161 8945 4058 5844 5309 2942 5969 5897 5705 
942 114 5506 7707 9786 3680 7389 9005 568 
9493 9983 7232 854 7064 4478 1225 9499 635 
9736 6681 9259 7153 9532 8287 9346 9850 3734 
1871 2736 4777 4283 8733 1505 4534 8262 7184 
8992 7672 778 6999 8442 7675 1658 7605 9533 
2694 6129 9295 9862 1419 3537 3275 7395 1759 
6870 1054 7599 4452 1107 1918 8665 1331 4537 
9329 9856 8324 8678 7829 6845 5278 3629 9481 
2815 6595 1516 4295 9982 6026 6899 9572 777 
2537 6827 9328 3158 1621 6062 851 9566 64 
8509 5203 3895 4916 6796 3090 1174 3674 8165 
8559 1987 6897 4432 372 373 9397 320 8167 
46 9597 1152 5565 3144 9663 9416 6110 1980 
9653 6911 7160 820 6985 2415 9498 6004 6803 
1853 3940 5995 2203 1734 5275 7034 9107 6448 
8026 7416 8921 9950 3614 2101 8582 6961 9023 
1656 8534 7653 7893 4057 5889 6039 1038 890 
8949 2947 181 3115 8947 257 9379 8280 7787 
1953 6462 2963 735 5710 6326 7911 1820 8217 
1088 1460 1647 716 9225 7658 1211 6874 4972 
4600 4768 2138 7337 5562 9684 4806 8703 8222 
2681 5517 5785 6464 1617 4036 8297 4985 6020 
7051 4221 220 6257 8737 4474 7380 5729 9055 
8579 5 7690 8517 1047 2850 7005 9505 6880 
1008 5743 6642 1125 7710 7515 3656 1277 5063 
5439 3088 5688 6980 9632 6572 1657 3799 8323 
2361 4091 7934 3276 7359 8059 4965 1359 4922 
9846 538 7012 8083 8285 7286 3790 3244 2319 
9567 9104 3882 2340 7372 5087 5413 9347 4792 
381 9576 6585 7523 980 2581 3711 246 5424 
7111 1037 5948 8826 6992 6535 2594 9162 9763 
8524 9378 507 5221 9876 6483 4445 5503 610 
9175 4515 9261 9260 9110 4497 7437 5004 4904 
881 8756 3959 377 879 2385 5092 8087 3639 
7641 3149 2643 7721 8419 584 5060 4209 8513 
6927 9969 8421 2074 2964 5330 1915 7296 7151 
6413 9791 431 2379 117 2155 5934 8989 784 
5015 4855 9776 8300 6278 9599 4644 5132 7021 
828 1774 9400 2450 3727 7417 2958 7746 9911 
414 5494 4559 2153 1317 2435 8479 7871 3260 
5188 2603 115 6446 3218 6841 2592 499 7634 
5109 7283 4130 8398 1102 3702 9669 7035 2560 
4687 2270 4231 5738 8463 9278 517 4206 4415 
2497 7494 8771 9413 4655 830 9749 2022 6699 
5999 4371 1118 7790 4512 253 4031 9119 1461 
7320 8127 335 4335 9455 5874 2710 6774 1678 
6113 1285 3112 9131 483 1389 8762 8800 9451 
5359 113 9852 2013 1307 2840 725 1580 8941 
691 4758 9707 9995 1324 78 7236 1574 4770 
7508 6435 2443 6613 330 8896 4051 832 7946 
3443 393 1758 1749 2152 6637 424 9981 9970 
1255 4412 5093 3071 3519 9133 9627 1712 4769 
558 6241 3311 6086 4560 1578 9924 7552 9977 
4871 5951 9583 8974 8621 9539 7281 3462 199 
8160 3147 1731 6461 9215 8587 6501 8034 4616 
798 9273 3201 1776 2137 9615 4278 6347 9039 
2654 7536 9371 8520 9053 6470 9554 6121 7743 
3482 3255 9732 1615 2589 2954 3920 5812 1745 
8086 4503 6127 1360 6818 6793 2996 4304 2192 
5404 248 5094 9742 6766 5263 5714 7244 3315 
9740 9705 7981 8410 9806 9812 9208 960 758 
1861 7960 1114 3809 9098 8459 1061 7082 5744 
3029 6085 4604 5986 9909 2849 8948 8747 9459 
2697 2593 4963 4566 1280 8913 3171 4552 2887 
1550 6084 3461 7474 8590 4934 6863 170 6104 
8597 5519 9900 6450 2370 1340 184 4151 4657 
7088 8461 6213 662 2965 2533 5327 5808 1145 
2570 3452 8893 2194 5257 4819 4095 1421 5840 
8202 921 8933 2534 1064 1594 3440 240 3436 
5231 6552 3987 2302 8864 2081 6221 2672 5544 
1040 4115 5568 4967 852 6380 8740 3609 8373 
6457 9851 185 4082 498 5518 8063 3412 5302 
3903 9193 4126 5943 9019 5991 8661 2993 4498 
5658 8687 9803 6887 5071 2876 6075 2551 4352 
933 4779 7253 7692 4900 8499 6128 2583 76 
6775 7313 4623 6771 9645 6138 4190 5769 611 
9398 4964 4765 3666 3751 2623 8637 6835 7769 
266 4579 3967 7809 5066 5841 8341 5492 2703 
4189 5778 5409 7238 2586 3473 3165 8332 8191 
680 3478 2146 4168 8345 5169 6695 6857 8645 
1542 4986 5819 9767 7407 3647 4805 4820 2424 
9773 1593 7496 5208 9766 6474 8022 4340 8185 
7827 8814 6276 5930 6906 2666 6370 8904 4660 
995 4015 4373 496 4359 1804 7628 8531 9048 
1646 2233 3947 6327 1215 9556 6319 3781 9345 
7215 3278 3358 7958 8624 822 5927 8489 533 
9713 7080 658 9623 4145 4197 2377 1890 5371 
3095 3485 8748 4220 1513 277 4400 4832 3798 
4796 6609 1948 4271 8823 2801 8289 6562 2631 
1790 2023 2737 3583 442 4903 7961 8617 2820 
6081 5938 1407 9129 8158 5091 7026 2395 2496 
9195 9587 2214 959 582 1924 7036 9434 9966 
9602 9652 136 3641 9940 1659 3921 3635 4568 
1297 2740 6456 7863 4663 4451 4418 7170 6799 
774 1653 1995 1696 6738 3394 7260 7126 5466 
2449 8560 8976 3566 9685 4678 4946 681 6865 
74 9032 9561 1435 5090 7360 4066 5418 2150 
399 5663 6123 3409 6949 4754 5992 3401 1627 
4913 7400 3125 2808 382 2622 5156 2386 861 
5939 8220 9267 1589 5733 7936 2722 7768 9768 
718 6764 6932 4665 6014 4320 7994 3210 9118 
3699 5367 2716 5500 5213 8403 6488 905 2448 
5186 1311 2196 4144 2829 7526 9093 340 6806 
1945 6015 112 2778 4338 2864 8436 9847 4540 
7984 1308 7998 7789 5131 3636 3055 2330 7071 
7864 553 2927 8973 1353 5511 5902 9952 5974 
2063 3064 8580 2418 163 6157 7627 9281 7308 
1289 2838 3402 241 6950 6889 3032 5183 6497 
2753 618 1936 2005 6939 4174 9423 5520 9919 
7197 1989 2991 5335 1951 7876 6528 5095 6749 
6706 6987 2909 5502 898 894 6537 8872 7419 
7547 4405 1544 2240 2862 2538 4782 5000 6557 
4763 596 3520 3662 3508 8891 1082 2426 9757 
1850 6509 7240 2994 1199 2771 4882 9316 9390 
8002 3965 366 3995 7698 2485 6400 5437 4480 
4299 5114 6338 9364 1232 1623 9865 4785 2246 
9482 3222 3103 193 9458 4287 1010 4797 9628 
3878 8215 2899 3376 9047 9325 8232 9051 2296 
1203 7733 3838 8808 2562 999 8620 7008 1001 
2129 9867 9784 3349 8711 437 9980 2916 2936 
6653 7368 5803 4417 9979 1969 1914 9245 9157 
855 2951 3515 1632 5247 3513 651 4766 2439 
1104 1577 6561 4113 9795 9960 7629 7872 4353 
6930 2283 1926 5401 8264 321 5839 5043 2670 
2299 9306 5262 4425 3644 7661 4131 9702 5215 
1364 4881 238 4348 1766 1246 7761 8538 8824 
1567 7266 6937 2676 1571 249 2291 6191 2438 
9287 6972 2009 6846 7431 5179 2469 8718 1848 
981 1495 9508 6907 4224 7770 391 5328 4346 
6427 1643 9905 8631 1949 3542 7149 2189 4966 
2436 1390 4549 3510 3982 9030 1854 3338 1354 
6225 8946 9363 9527 3342 3044 3348 7284 6090 
1305 5704 6859 9665 41 205 714 4294 9523 
415 5736 9186 4007 6878 9656 9866 6568 9227 
3748 1737 9237 7735 4635 3986 271 6735 9676 
5336 7366 9156 3735 3396 6263 5444 6538 6740 
3951 8214 3634 5483 1452 1618 8732 2809 1169 
4071 8888 1370 4446 2413 1241 2098 6625 3242 
4684 9296 1636 1365 5578 9040 4921 8778 5715 
6651 7317 5137 6917 2378 6058 4044 571 7755 
4943 2259 8375 9890 835 3024 2493 1846 8067 
8854 525 4386 4570 7136 8760 3316 2412 653 
977 6199 6101 7362 201 5006 2029 7280 7821 
3484 9959 1930 281 4547 3952 2016 449 953 
1431 130 306 1029 7323 9013 2605 9562 987 
6259 8722 3106 4134 7762 5627 36 8716 3788 
6820 6262 9719 2452 8008 9992 1408 9248 1947 
5608 2888 9522 2910 9100 3334 9180 6202 9176 
2625 550 5584 227 8249 7330 4937 5723 9543 
6556 675 3151 767 66 9265 5686 8942 8426 
4898 2540 7471 1863 6697 2550 100 3020 9921 
7254 440 8799 8699 9263 1616 7560 7095 448 
3138 49 5403 4193 5055 7408 5856 2372 394 
5888 1301 4099 1201 157 6425 7666 5708 8694 
1622 8227 8971 4730 2012 3603 2529 546 563 
9127 4624 2943 9657 4422 6353 4182 9471 5334 
3118 6340 4471 6966 3935 5082 6363 8093 7810 
2786 5472 4740 1504 4110 3800 2630 9478 2906 
8090 2288 8842 8041 5712 2968 317 1265 7155 
476 8003 1541 3186 1517 886 909 2135 4496 
3601 4757 6220 3269 59 2617 6821 1812 7040 
6971 3544 4938 3491 967 3658 6078 1455 7928 
7806 1033 3105 1526 4647 7651 2952 8600 2231 
1052 9018 8438 2250 8021 8491 8051 6206 9054 
8107 7580 8683 365 6997 5918 5765 7233 9446 
305 527 4461 3703 5572 388 8836 2289 1534 
7677 6454 5896 2427 906 1216 9648 9552 2611 
9407 4955 1250 1269 3591 7023 5002 5675 6143 
2145 7227 6892 1464 7113 1432 2685 6224 1728 
3594 5806 260 8425 5813 763 8095 6686 224 
6772 8476 9816 146 8111 2195 7139 7905 7462 
4592 4195 5628 6714 9461 2599 8210 9675 1077 
4839 2793 6578 8619 4899 8943 7916 4061 5667 
9424 7775 649 5412 7115 2066 299 4747 6626 
9361 7427 7117 5438 9435 6632 2621 3710 4662 
9106 5669 2983 3687 9494 7003 2008 3655 3741 
2752 8128 8387 7030 2563 4694 2322 8198 406 
6348 1898 7039 7198 8627 1868 2245 9563 4775 
6279 665 3216 2542 3166 5649 8653 5064 6375 
56 1260 7594 3722 740 3896 3840 1339 7002 
9990 5826 8796 3755 3094 6305 903 4322 9037 
4390 895 7687 9889 4191 9351 9864 3960 1805 
1121 706 4033 7756 8988 8116 1160 9754 656 
6925 1210 6149 497 4935 2856 9678 4251 4661 
4858 4525 292 6476 5212 2239 951 6082 3690 
6579 4893 1352 8900 2785 8456 1494 9642 9511 
1196 6753 1954 927 9122 8391 619 1399 996 
3872 9276 6529 346 1569 7445 3738 3670 6024 
1123 9643 7218 80 8445 9589 291 7579 9125 
3884 6308 3615 6209 5576 1549 7968 5315 4315 
9710 7760 1400 5267 4557 4577 2826 9467 6563 
3087 2610 7701 8050 9137 1628 5080 6421 8873 
9294 9641 7164 1337 3234 5031 9800 3017 8691 
6016 5898 7507 5650 7559 3581 1428 7351 9442 
1207 3083 2123 8964 1017 9121 313 6646 5737 
465 4354 4201 6514 5184 7731 5450 5457 6493 
9761 2674 5583 6164 3196 4891 5020 5768 9251 
5112 8615 8776 8861 1351 6177 3627 8761 297 
6822 6832 7545 70 5731 3759 4248 6953 8423 
1888 6954 5104 3162 3749 4945 91 1287 5735 
2818 5013 4494 2886 3119 5155 650 6604 1444 
9635 1708 6868 5537 6654 2482 4533 9942 7902 
348 1768 7293 3568 3167 1488 1511 5435 2 
4948 204 7211 8684 217 2044 1584 3040 5035 
5194 5455 7875 3899 7591 2247 6377 2111 862 
5911 4003 4633 6234 4829 4180 9884 8131 8396 
7953 111 4116 1548 8126 9537 7069 682 2975 
9150 6410 5238 353 8169 8591 9785 3923 2505 
3464 8053 8184 6718 4424 993 4077 6888 4872 
5702 5375 3668 138 1713 972 962 6935 5256 
8149 9029 7841 9666 3990 3045 6611 5699 5695 
7814 8281 5128 1443 9517 5987 63 2050 3199 
9199 3415 5135 8492 1786 3602 298 5959 2369 
6853 2285 1062 2342 8017 6975 6908 2638 5175 
551 9228 2326 858 6639 2684 9083 5996 5070 
4621 6956 2267 4932 2021 3067 5448 1724 8659 
7590 1482 430 9804 6093 3856 9038 8490 9449 
1803 9571 2352 2314 2474 9436 5820 4135 8753 
7869 7079 3746 7667 9967 2919 576 8308 8402 
3066 6455 87 9603 4062 2313 3475 2318 8209 
6179 8147 6661 9238 4656 384 5295 3403 4652 
9242 2164 6640 1944 1112 3155 6881 9173 6990 
9426 7537 1415 9454 3776 7295 4838 1146 4087 
5855 8487 1170 4516 6349 9160 5920 7699 1306 
4519 2911 5895 9164 7584 5096 1762 4897 2607 
2428 7636 3208 1379 2741 1175 4170 2660 6030 
4750 526 3742 1707 8077 3051 6463 4575 2258 
374 8277 1543 7243 5059 1527 1670 7083 3229 
1723 8769 5185 4102 9405 6495 9234 4681 4827 
8475 8940 5904 2896 1787 83 6453 2271 8179 
6122 9421 1178 7020 5815 1268 8783 4249 5075 
782 7189 2555 1469 5111 1191 166 3016 540 
6931 6825 5237 984 9255 841 9002 7835 1098 
3907 2959 6988 8562 3267 3350 9448 2705 9558 
7848 6357 5917 5197 2070 700 4292 6981 9548 
7015 8046 8092 5088 3185 6720 6258 1486 8950 
9337 7619 3145 2645 3446 307 8159 8938 4901 
9063 5170 3053 7751 5417 6440 715 6672 1988 
7811 3262 6130 4862 3007 5717 3784 7716 8028 
1720 7908 9381 336 5757 2094 928 3371 781 
211 2514 5564 4369 2816 686 7866 4952 1172 
7279 3257 7443 8407 1492 8564 7147 8898 6108 
5158 8333 7540 7250 2615 8528 1931 5471 8117 
4697 2277 744 6068 6386 6918 7092 7881 2316 
7237 7300 7109 8504 5143 6617 6779 1763 2113 
8656 7805 6926 1843 7874 5147 7049 7306 7217 
1030 6145 4282 7397 5552 8593 8082 9601 2545 
171 4861 8628 7013 634 9140 6371 5598 9168 
6807 4181 1961 4821 6968 9275 1809 57 2011 
6938 5618 9462 1624 2658 3122 9366 7546 604 
2990 2788 8584 9708 591 8498 3395 2445 3341 
9712 8288 9861 1056 8309 6335 4908 5611 9283 
7478 9798 5350 5882 2264 6765 9266 1384 4429 
1681 7477 3250 8701 916 2284 7625 3524 1003 
5431 2526 3536 4683 3813 3607 6136 9417 8632 
4714 6211 9654 7583 2758 626 3562 8282 8133 
7228 1955 5488 6458 1830 8248 9304 6323 5683 
342 3891 7517 7055 5774 672 7052 9354 7438 
3909 282 2897 9611 1674 1220 9349 3530 4712 
3303 5069 9931 5755 8073 9801 3134 3592 3294 
1923 9094 1672 7461 6173 6238 7212 2043 8180 
6223 4225 7483 9951 6844 8233 7860 1410 722 
2665 8598 8574 5362 5363 8654 3786 8822 5287 
8876 4556 2114 9408 6854 5192 5202 5149 1998 
4364 8884 1910 6597 9574 7851 7511 2821 7191 
215 75 7833 2168 8855 5252 9021 1694 7639 
9177 4467 5205 9877 4138 5338 988 826 7912 
420 3892 2154 2387 3683 8572 1942 9365 7112 
6250 2040 104 8068 3030 2483 9221 9823 312 
4123 9913 3509 8256 3672 6741 8305 6160 96 
7728 2227 5054 9080 2773 3778 7465 5443 8439 
7482 9187 4380 5949 9837 6359 8195 7596 3500 
2972 4693 8510 1327 5150 8272 8530 521 2262 
6331 8862 9090 2576 6242 6176 1090 9185 4403 
6532 2882 8958 4275 6916 8547 6763 7574 2506 
6169 3767 8849 338 8383 7344 6798 3195 5204 
2064 8841 9033 5641 4798 8348 7174 3806 5379 
2559 3643 4706 3918 7454 2564 7656 5516 904 
4774 8866 8035 668 2591 5570 9829 5933 6049 
3021 1984 5321 5200 7608 152 8115 468 9167 
9547 230 8889 9313 9555 8777 7915 6658 6158 
606 7567 7290 9169 6813 1831 6767 192 8662 
3034 4239 172 9674 2677 1206 352 5910 8228 
4391 7548 1002 198 6635 6682 873 7817 1493 
5964 7242 7053 8581 2832 3640 1027 2236 9718 
1430 8506 1177 7757 5616 2691 8274 1295 5529 
8443 7451 9196 6442 7459 574 3686 554 9586 
7917 8301 1319 6247 4296 9868 7800 5182 8863 
3184 2478 8036 7502 597 3597 4632 405 8840 
9412 6550 7125 8004 3320 9468 94 8939 3146 
1070 9003 6159 2508 669 8647 3521 4291 2783 
9074 4992 4522 1904 267 9469 9414 8674 6794 
4136 3372 7792 3325 3937 4562 4851 7951 8566 
9700 1655 7522 2894 5239 3261 9636 3322 632 
3323 2082 1439 5681 8869 1588 1690 5029 3862 
6518 623 4689 5140 383 9733 5940 8745 8023 
9619 6593 3836 6096 486 3948 2646 9192 8346 
840 5341 7779 6013 4645 7534 2709 3651 7706 
252 6923 8203 7992 2651 324 4290 1009 1387 
3875 7192 5395 2069 8752 542 5365 6786 2312 
5258 3664 7840 1721 5794 7642 6478 3701 7739 
4957 8175 195 4360 5501 7878 8495 9681 9815 
9344 2252 2566 845 8084 5858 3582 2759 9401 
8279 622 1545 3346 5430 5753 5303 4711 8306 
7194 34 8164 775 9504 4336 8380 8420 6969 
5449 2627 3864 5089 9052 4596 1772 6525 8521 
759 7940 8886 6837 7543 3619 1581 4636 3832 
6365 129 5833 4810 1424 5049 9762 5276 7222 
1398 824 4650 5536 4079 6751 2573 6576 2320 
5624 8914 4956 2708 6300 9395 2781 2841 2241 
1467 7365 9292 1219 7396 7674 2868 5101 2472 
7261 7292 7648 1296 1816 5926 1281 6896 8512 
8356 4308 7975 7569 9838 6996 3769 3775 2107 
2575 4159 7741 4309 6631 9289 7650 9312 1582 
2396 9606 5604 3304 9410 6006 6982 8969 7520 