# vtk DataFile Version 4.2
Generated by LIGGGHTS
ASCII
DATASET POLYDATA
POINTS 10000 float
-0.0185822 0.00100677 -0.0366595 -0.0179163 0.00264394 -0.0369945 -0.0186075 0.00610381 -0.0366472 
-0.0179599 0.00775504 -0.0369692 -0.0187356 0.00932031 -0.0365629 -0.017732 0.0107109 -0.0370813 
-0.0179901 0.014016 -0.0369559 -0.0186193 0.0157203 -0.036649 -0.0187669 0.0175124 -0.0365654 
-0.0182118 0.0192084 -0.0368512 -0.0203086 0.000898156 -0.0357383 -0.0212018 0.00237059 -0.035209 
-0.0196038 0.00250489 -0.036124 -0.0178284 0.00244939 -0.0352159 -0.018542 0.00394087 -0.0359177 
-0.0203207 0.00410673 -0.0357321 -0.0206798 0.00636857 -0.0355263 -0.0211319 0.00808533 -0.0352555 
-0.019608 0.00766979 -0.0361296 -0.0213114 0.00990167 -0.0351457 -0.0193113 0.0110568 -0.0362804 
-0.0209753 0.0116946 -0.0353487 -0.0193752 0.01286 -0.0362503 -0.0200499 0.014485 -0.0358782 
-0.0183396 0.0145108 -0.0352689 -0.0201716 0.0162772 -0.0358147 -0.0213666 0.0175169 -0.0351164 
-0.0197979 0.0191877 -0.03602 -0.0223974 0.000920514 -0.034464 -0.0206677 0.000892921 -0.033984 
-0.01867 0.000898217 -0.0348692 -0.0196347 0.00231649 -0.0343273 -0.0206779 0.00374236 -0.0340168 
-0.0188672 0.00394298 -0.0341239 -0.0221527 0.00456904 -0.0346213 -0.0207736 0.00553108 -0.0339541 
-0.0192284 0.00539469 -0.035118 -0.022176 0.00676882 -0.0346035 -0.0184563 0.0070046 -0.0349106 
-0.0224973 0.00881916 -0.034339 -0.0196625 0.00909837 -0.0350461 -0.0224589 0.0111905 -0.0344218 
-0.0195703 0.0109701 -0.0345008 -0.0182412 0.0119813 -0.0351662 -0.0197884 0.0127531 -0.0345072 
-0.0230995 0.014691 -0.0340038 -0.0215594 0.0140719 -0.0349908 -0.0196612 0.0144873 -0.0340598 
-0.0219194 0.0158216 -0.034769 -0.0203164 0.0161573 -0.034029 -0.0183218 0.0164485 -0.0350421 
-0.022939 0.017642 -0.0341112 -0.0195874 0.0177172 -0.0349167 -0.0221816 0.0191938 -0.0346053 
-0.0204089 0.0192064 -0.0343386 -0.0186171 0.0192032 -0.034646 -0.0238388 0.00139435 -0.0334873 
-0.0223213 0.000896995 -0.0326672 -0.0190894 0.000896538 -0.0331231 -0.0248783 0.00272659 -0.0327197 
-0.0219817 0.00244787 -0.0335878 -0.0180838 0.00247775 -0.0334417 -0.0235126 0.00338423 -0.033711 
-0.0247849 0.0045192 -0.0327901 -0.0231189 0.00506247 -0.0331913 -0.0197846 0.0046395 -0.0327442 
-0.0190772 0.00611723 -0.0334783 -0.0241167 0.00655455 -0.0332843 -0.0223141 0.00662643 -0.0328143 
-0.0233164 0.00811816 -0.0329019 -0.0211165 0.00804889 -0.0334643 -0.0193291 0.00798032 -0.0336726 
-0.0248713 0.00900064 -0.0327226 -0.0204669 0.00971851 -0.0335707 -0.0184342 0.00972308 -0.0338945 
-0.0251926 0.010806 -0.0324794 -0.0238259 0.0102355 -0.0334964 -0.0221057 0.0101567 -0.0329936 
-0.0209463 0.0116271 -0.0335513 -0.017991 0.0115068 -0.0334525 -0.0236365 0.0130173 -0.0336263 
-0.0218525 0.0131792 -0.0334566 -0.0200559 0.0129826 -0.0327457 -0.0182291 0.0133856 -0.0338722 
-0.0186675 0.0158294 -0.0333933 -0.0238519 0.0162351 -0.0334804 -0.0220829 0.0164511 -0.033079 
-0.0247854 0.0176355 -0.0327846 -0.0208819 0.0177471 -0.0334076 -0.019218 0.0175745 -0.0327574 
-0.0178335 0.0177374 -0.0338927 -0.0236675 0.0192033 -0.0336044 -0.0219784 0.0192001 -0.0328197 
-0.0183796 0.0191608 -0.0328643 -0.0266769 0.00090355 -0.0312738 -0.0252237 0.000901818 -0.0324478 
-0.0206131 0.00122392 -0.0322254 -0.0176965 0.000896532 -0.0319855 -0.0234223 0.00208387 -0.0318856 
-0.0191688 0.00225783 -0.0319554 -0.0261216 0.00394161 -0.0317356 -0.0225428 0.00361263 -0.0322136 
-0.0207578 0.00300194 -0.0323894 -0.0214943 0.00505847 -0.0323874 -0.0177071 0.00409751 -0.0326739 
-0.0254914 0.00602898 -0.0321253 -0.0238156 0.00543053 -0.0315757 -0.0175721 0.00587454 -0.0324893 
-0.0241592 0.00719503 -0.031609 -0.0205345 0.00661777 -0.0325483 -0.0192167 0.00738787 -0.0316038 
-0.0178359 0.00763249 -0.0327239 -0.0258965 0.00776498 -0.0319219 -0.0216607 0.00803868 -0.0317561 
-0.0263661 0.0094545 -0.031534 -0.0201002 0.00889274 -0.032018 -0.0180482 0.00933316 -0.0321892 
-0.0228837 0.0103662 -0.0313885 -0.0193637 0.0107367 -0.0325956 -0.0235716 0.0116662 -0.0324436 
-0.0217233 0.0116253 -0.0319317 -0.0256069 0.0125911 -0.0321517 -0.0239918 0.0133311 -0.0318943 
-0.0222431 0.0132882 -0.0314984 -0.0179626 0.012791 -0.0321976 -0.0266404 0.0143395 -0.031293 
-0.0252535 0.0145045 -0.0324294 -0.0224648 0.0148568 -0.0323381 -0.0207057 0.0146544 -0.0326136 
-0.0239994 0.0156701 -0.0317951 -0.0191978 0.0152573 -0.0317772 -0.0256843 0.0162253 -0.0320859 
-0.0204878 0.0164024 -0.0322597 -0.023057 0.0178437 -0.0323277 -0.0213546 0.017865 -0.0316837 
-0.026116 0.0191803 -0.0317414 -0.0243334 0.0191808 -0.0319444 -0.0201537 0.0191692 -0.0325655 
-0.0280149 0.000897852 -0.0300808 -0.0243242 0.00089728 -0.0308865 -0.022528 0.000895206 -0.0308835 
-0.0198445 0.000892295 -0.0306451 -0.0274688 0.00264771 -0.0305765 -0.0256002 0.00233571 -0.0311236 
-0.0213472 0.00224773 -0.0308737 -0.0243399 0.00366445 -0.0312763 -0.0229176 0.00298656 -0.0304168 
-0.0187309 0.00383618 -0.0312222 -0.0279479 0.00440761 -0.0301368 -0.0250244 0.005107 -0.0302857 
-0.0222191 0.00466432 -0.030796 -0.0204752 0.00425601 -0.0311366 -0.0268625 0.00545484 -0.0311125 
-0.0209812 0.00597613 -0.0309319 -0.0190062 0.00561371 -0.0314501 -0.0265184 0.0070625 -0.0303969 
-0.0225798 0.00679518 -0.0308489 -0.0279587 0.00813321 -0.0301297 -0.0254544 0.0085002 -0.0302758 
-0.0232111 0.00862136 -0.0310664 -0.0204295 0.00803081 -0.0304493 -0.0175345 0.00790353 -0.0309755 
-0.0245667 0.00979268 -0.0311409 -0.0213096 0.00963782 -0.0309191 -0.0178952 0.00957195 -0.0304207 
-0.0277233 0.0110663 -0.0303515 -0.0260041 0.0110913 -0.0308859 -0.0195394 0.0101787 -0.0308985 
-0.0179635 0.011001 -0.031505 -0.024195 0.0115067 -0.0307683 -0.0208432 0.0113059 -0.0303914 
-0.019429 0.0120317 -0.0313566 -0.017767 0.0124491 -0.0304469 -0.0269835 0.0125932 -0.0310006 
-0.0253074 0.012863 -0.0304004 -0.0248724 0.0145792 -0.0306764 -0.0230266 0.0147123 -0.0306408 
-0.0212229 0.0146435 -0.0308942 -0.0189388 0.0137509 -0.0308422 -0.0279265 0.0149166 -0.0301592 
-0.0263949 0.015966 -0.030455 -0.0181131 0.0158318 -0.0304666 -0.0235543 0.0170456 -0.0307371 
-0.0220403 0.0162526 -0.0312923 -0.0269072 0.0175726 -0.0310751 -0.0251278 0.0178747 -0.0309985 
-0.0197806 0.0173747 -0.0309252 -0.017981 0.0176092 -0.0310525 -0.0274723 0.0192039 -0.0305715 
-0.0239949 0.0192053 -0.0301844 -0.0224385 0.0191788 -0.0310827 -0.0208018 0.0190793 -0.0303471 
-0.0190915 0.01902 -0.0311314 -0.0257175 0.000896133 -0.0297581 -0.0240322 0.000899038 -0.0291101 
-0.022189 0.00099301 -0.0291241 -0.0180974 0.000893534 -0.0302362 -0.0288285 0.00229366 -0.029294 
-0.0266515 0.00231365 -0.0290138 -0.0249082 0.00247297 -0.0294755 -0.0211221 0.00252041 -0.0291122 
-0.0197006 0.00265368 -0.0302743 -0.0177401 0.00264711 -0.0303092 -0.0292236 0.00400457 -0.0289021 
-0.0261677 0.00376533 -0.0299473 -0.022158 0.0039899 -0.0291353 -0.024052 0.00403012 -0.0292119 
-0.0202791 0.00418705 -0.0293583 -0.0186071 0.00495869 -0.029829 -0.0281376 0.00617842 -0.0299115 
-0.0266121 0.0053964 -0.0293387 -0.0233718 0.00559369 -0.0297809 -0.0288927 0.00736994 -0.0288 
-0.0247691 0.00687484 -0.0299501 -0.0213623 0.00677466 -0.0293714 -0.019545 0.0065183 -0.0299964 
-0.0177531 0.00653777 -0.0298299 -0.024038 0.00832483 -0.0291819 -0.0220337 0.00840473 -0.0297268 
-0.0187898 0.00816791 -0.0297126 -0.0286573 0.00981051 -0.0294657 -0.0268609 0.00951559 -0.0298136 
-0.0234492 0.00992514 -0.0297398 -0.0201113 0.00928683 -0.0292081 -0.0252161 0.010165 -0.0295092 
-0.0217223 0.0100993 -0.0292201 -0.0188118 0.0112029 -0.0296155 -0.026505 0.0120208 -0.0293645 
-0.0246586 0.0118109 -0.0290589 -0.0225882 0.0114841 -0.0299687 -0.0283136 0.0126791 -0.0297979 
-0.0234768 0.0130386 -0.0301619 -0.0215987 0.0129754 -0.0298564 -0.0198381 0.0126685 -0.0297318 
-0.029086 0.0141154 -0.0290376 -0.0269997 0.0137361 -0.029173 -0.020832 0.0144392 -0.0291543 
-0.0189555 0.0147098 -0.0293203 -0.0289824 0.0159926 -0.0291491 -0.025696 0.0149689 -0.0291348 
-0.0240429 0.0156225 -0.0294671 -0.022018 0.0157763 -0.0295604 -0.0201458 0.0158293 -0.0300749 
-0.0252416 0.0169653 -0.0294508 -0.0285455 0.0176816 -0.0295699 -0.0267799 0.0178877 -0.0293152 
-0.0236809 0.0177994 -0.0291167 -0.0220592 0.0177616 -0.0300413 -0.0204849 0.0175236 -0.0292049 
-0.0187045 0.0175298 -0.0294205 -0.0279214 0.0192022 -0.0288398 -0.0257749 0.0192082 -0.029978 
-0.0225612 0.0192068 -0.0291062 -0.0193038 0.0192116 -0.0293628 -0.0175515 0.0191372 -0.0302149 
-0.0299846 0.00108933 -0.0281136 -0.0282076 0.000915443 -0.0283037 -0.0261857 0.000893698 -0.0280278 
-0.0203499 0.000907864 -0.0289276 -0.018602 0.00089646 -0.0285158 -0.0289137 0.00239869 -0.0274992 
-0.0247288 0.00210257 -0.0277316 -0.0232689 0.00248235 -0.0287294 -0.0274509 0.0038424 -0.0285074 
-0.0256585 0.00360118 -0.0282293 -0.0186956 0.00338519 -0.028974 -0.0304818 0.00453225 -0.0275616 
-0.0230085 0.00516798 -0.0280766 -0.0295757 0.00572948 -0.0285437 -0.0278593 0.00553276 -0.0280491 
-0.0246811 0.00574069 -0.0285634 -0.0212367 0.00531142 -0.0283374 -0.0194398 0.00538654 -0.0282992 
-0.0303338 0.00731944 -0.0277299 -0.0271104 0.00702814 -0.028706 -0.0229865 0.00697616 -0.0286338 
-0.0199335 0.00742387 -0.0284951 -0.0182953 0.00676668 -0.028129 -0.027685 0.00870816 -0.0284349 
-0.0258497 0.00845429 -0.0285263 -0.0213526 0.00864564 -0.0280809 -0.0173568 0.00822553 -0.0286171 
-0.0297411 0.00889274 -0.0283689 -0.0230889 0.00938986 -0.028063 -0.0183239 0.00973814 -0.0286922 
-0.0278473 0.0111402 -0.0285662 -0.026431 0.0101162 -0.028183 -0.0246729 0.0101981 -0.0277995 
-0.0231512 0.0111826 -0.0282865 -0.0197459 0.0106998 -0.0281664 -0.0296373 0.011291 -0.0284726 
-0.0211449 0.0117097 -0.0286681 -0.0302531 0.0128552 -0.0278255 -0.0284742 0.0127261 -0.028013 
-0.025543 0.0131745 -0.0282829 -0.0237117 0.0131515 -0.0280281 -0.0198676 0.0129423 -0.0279623 
-0.0183028 0.013031 -0.0288354 -0.027664 0.0142668 -0.0275933 -0.0226035 0.0141789 -0.0289885 
-0.0301656 0.0154419 -0.027921 -0.0272496 0.0157718 -0.0287317 -0.0283561 0.0165668 -0.0275601 
[...]
POINT_DATA 10000
FIELD FieldData 7
id 1 10000 int
2267 5004 9220 4442 9481 931 4645 5104 944 
399 9084 4566 7712 7569 1764 6146 584 7391 
3412 9385 2153 2870 2392 807 5623 6541 1897 
7799 750 5673 2213 5137 5638 4141 1567 9981 
6121 8737 6522 8969 78 2118 5275 1781 9590 
2868 9133 9958 5808 8678 1266 2114 8236 3085 
8134 2433 8416 5521 9488 1291 9722 6023 9150 
4555 4582 9282 9566 5566 7891 3236 7011 3238 
1638 6497 7843 8541 5496 3349 2120 6823 7924 
1899 1199 7578 3292 9908 3787 7009 3039 4206 
6402 6536 1138 7832 4587 7240 1206 9292 28 
9242 3988 3809 4459 5276 8421 6956 5963 2023 
9537 8564 3503 9557 4222 4024 264 7894 439 
144 3712 5626 263 9780 7575 6762 5379 1280 
632 6644 7360 831 3613 3949 2048 1949 5034 
9731 9667 9142 3487 744 3309 9903 4811 6106 
6161 6746 8389 8095 434 9818 6098 1852 7974 
6403 5352 6026 2588 6552 8493 9588 8167 5795 
9897 9677 7291 8146 1159 344 1457 5181 2721 
4783 6517 4539 5659 950 3830 2136 8026 5378 
9965 3963 4503 6593 2328 6893 4714 1729 6048 
9329 2733 9034 4347 3469 9225 6145 583 4145 
8009 1479 7156 8431 3492 5548 3180 6035 6992 
4429 1179 3990 3508 9583 107 7937 2323 4524 
9515 8377 1448 9951 611 3348 2817 758 1698 
4249 4652 7500 7475 818 2464 8 9696 9085 
7447 9733 9786 2892 2858 2680 9439 9894 4595 
4892 133 1447 9782 197 1611 598 8797 1162 
5003 1370 1752 8588 7049 7678 4051 6630 4329 
7237 5860 4951 210 4965 8504 9261 9506 8779 
9835 8845 8590 5851 7717 9927 5010 162 4463 
8996 9400 3317 8065 9639 79 2052 9479 5423 
1240 4627 770 1367 4470 3776 8227 2158 6505 
9671 3463 1012 1475 1721 3858 7770 9701 4455 
387 2453 4622 7241 3149 3800 4467 1113 3724 
3358 2775 9135 4321 2539 4365 609 4602 8408 
8621 7830 4624 9272 9748 8918 1693 9582 3721 
4764 737 6112 7227 6540 9827 6985 2193 7082 
6733 343 683 6378 9890 6971 339 4397 6793 
2121 2820 9751 9508 1954 4792 7564 4066 634 
1808 5217 8824 784 2998 6084 4888 9972 2700 
8701 8093 9455 4779 5794 7699 6278 5874 4231 
2321 7231 5887 846 3694 4414 2596 2638 691 
473 8873 5037 467 3315 7309 8139 3247 5464 
4591 2185 9147 6210 2624 7676 3437 389 8424 
1857 3303 1975 5524 6124 261 6038 1485 3406 
4067 6753 8351 9263 7651 7637 1593 1933 2170 
7691 6637 2762 6582 2886 3080 9532 6143 9690 
8878 1019 1369 5991 8632 8518 244 2311 9966 
5470 1263 3093 7605 8702 2318 3836 2365 1836 
3074 9918 2463 1751 3731 9681 5348 9030 1501 
8433 2157 6642 7630 7002 341 1939 9444 7052 
5283 2219 1289 8300 6655 1057 1187 3693 2520 
1372 1377 2712 8397 771 4943 2526 5951 8793 
5561 7305 356 3519 6096 5119 690 8598 9850 
602 442 613 3766 1815 3418 2623 1181 9849 
2160 4739 1981 7559 6649 8508 5069 1820 4832 
2679 5397 9559 635 7962 1226 3978 1335 5806 
9831 8145 3764 3064 9983 7157 9568 1994 2548 
7133 9573 6650 677 9162 5490 2592 4322 1969 
4625 8072 2677 7865 9829 8821 5977 5997 1944 
2186 7521 6460 7825 7602 2241 8894 199 8034 
9900 3462 6490 9863 8445 5174 1035 1165 4209 
714 1472 9724 1607 3395 7065 8939 3914 3983 
4945 8347 9340 3704 7498 4064 6314 5819 778 
8891 4807 6802 1971 6999 7086 7346 605 648 
1306 6872 1595 1544 7302 438 5692 7093 7760 
6256 7704 6866 4628 3633 6843 6906 2141 979 
4315 4974 1842 7632 2498 3077 5879 9460 5981 
4092 2032 8857 8972 7669 1601 4367 2822 2257 
9189 9707 3881 9856 6240 3741 8636 2666 220 
5781 1713 2005 5299 4014 8881 6727 7727 3744 
7827 9410 6317 3695 1636 6450 212 8716 3804 
8311 7182 6184 1303 2386 9524 6104 3904 1678 
1099 5666 6446 9795 837 3458 9363 2600 4855 
7512 3568 3586 7531 7318 6539 9171 4115 2767 
4814 5166 3378 6398 9538 3011 4335 1523 5906 
1782 271 3581 2033 6352 1004 5158 4643 6916 
721 3562 4986 8140 8545 6728 5695 1532 5549 
9957 9607 8733 8450 7005 6291 5715 9344 4452 
9691 6737 9995 5608 3838 9070 61 2997 8856 
5520 8524 8808 381 1385 4559 5293 85 6162 
2698 3435 7283 4671 9683 9383 157 5928 7385 
4389 4084 1528 9672 1314 1715 2346 4384 7969 
7171 8350 7652 9819 9998 493 9043 3625 8752 
3884 1198 9571 9176 1134 7721 6187 1464 8952 
2696 2927 4749 125 1174 4990 3434 4356 1730 
527 6130 3829 1512 1373 5407 5207 1564 2690 
6667 7028 8512 7828 5448 5032 7431 327 8810 
9086 298 4761 4789 3291 5434 2938 8516 8052 
809 9579 6430 8958 9412 4743 2137 3478 2699 
9868 9600 5139 5236 8920 8699 6508 2981 3777 
4826 2470 5989 1517 4371 9098 377 7982 9434 
9357 8689 2916 8192 9288 391 8070 7132 9741 
6091 8056 6097 6712 8262 9917 301 3133 3612 
4740 661 3041 5656 6970 1454 5902 2480 3502 
6602 7361 1589 8633 8025 2038 4939 7437 7191 
2022 5953 5020 2147 7438 9233 1275 3152 1178 
309 6220 845 5783 9718 296 1069 4822 8039 
5159 8569 4521 5785 8931 4964 2642 6835 7018 
6010 9126 1430 1710 4641 1471 9595 4854 1870 
3802 9042 7489 7810 5409 3132 6805 2431 8591 
6395 1252 5746 8943 5097 960 5021 2367 1754 
5648 8218 5865 2317 6674 1102 6927 9019 7524 
5933 2305 8758 1076 349 3032 9188 3397 1585 
6323 8994 2889 3161 7144 9546 8619 6478 3452 
6032 2375 4039 3440 9725 5650 6366 5319 5196 
2763 3989 7634 5635 8259 5999 4029 7022 8444 
4759 8893 1265 9809 3544 5893 2460 9151 1444 
4955 9812 9114 6362 6011 1709 8381 1056 2843 
9496 455 5707 1761 1850 2909 6307 4340 6748 
5153 3915 7403 3260 30 3224 3637 8756 9309 
9296 6339 776 6401 291 4668 8359 5744 1017 
7177 7395 5264 6607 6435 7538 7508 9695 8390 
6903 8004 1424 9747 1087 8833 4614 8515 6807 
9844 6110 7217 7094 9450 1539 786 8220 2753 
8811 9134 3219 9465 9023 9796 3824 9905 7535 
1919 184 5545 3235 7596 5395 7083 4144 6589 
5750 9791 4538 3421 8981 6726 200 7067 7950 
1558 4326 464 7230 2174 420 6864 1023 2215 
123 6277 7263 7280 6976 2418 892 7072 5424 
6888 7705 9833 5226 2396 6721 8517 9006 6732 
2678 4276 1804 2008 9936 2553 6287 4576 1466 
4662 787 3347 68 3686 3166 8312 4683 6759 
6819 8128 655 8865 6922 7610 6811 4471 3420 
9851 7780 3944 3083 6744 9217 7303 188 138 
1805 4088 767 3998 7000 7374 7218 3762 2264 
8388 106 2774 1885 2404 6873 2958 3600 6933 
4681 4261 4935 9911 6128 7537 5315 5716 9565 
5739 2751 8649 9657 5374 8812 7848 7129 4100 
9081 8650 6141 5334 4343 228 720 8741 4930 
6686 5729 3755 2538 2407 2300 9430 5245 3176 
726 9203 6889 484 4279 4457 4984 7980 4703 
3549 6283 9762 4273 5968 1049 8133 2621 5005 
7292 4846 4241 2846 3784 2936 4567 1164 1116 
17 6962 6149 6237 6661 3415 1333 2003 8753 
6574 1756 3237 9234 4534 2351 5262 9528 2108 
3530 2922 588 7802 9521 8532 3536 4684 7183 
7288 5186 7149 7855 5458 7274 10000 8046 4350 
5800 9056 8989 6036 2494 6688 3361 3108 8382 
3767 2450 3393 4032 7507 3907 1594 8438 8696 
5336 759 7995 4728 5197 8784 1450 630 7731 
5523 1268 4694 5688 8428 6034 5822 7698 2110 
2708 8835 4325 5792 2173 5203 3398 1062 1185 
9706 1091 5539 7499 987 180 237 2000 4227 
9156 9208 4068 8519 4957 7653 902 6767 4864 
3735 3684 2604 9129 3316 4730 2327 7693 7259 
4691 3016 1115 8401 3184 9511 9729 5287 3580 
5863 6330 8217 6901 3943 9943 9346 8107 9243 
2009 580 9417 4187 4319 6975 4742 9853 4719 
886 1881 2123 5576 6136 4532 2912 9641 1527 
8671 8792 8202 1257 4817 1458 3703 8054 6891 
4710 1075 8625 1092 3908 3015 282 8280 8265 
2988 8830 9475 3043 4167 48 1643 7458 3275 
7215 9320 1732 7841 2126 4285 855 9814 9031 
9323 9106 2727 6543 4837 7631 559 1417 4011 
8486 1253 4531 6856 5926 7269 9767 7626 1167 
1255 909 1538 7117 3441 9260 3936 8697 3713 
8765 238 798 3203 2972 8551 5081 3483 6930 
6527 2322 5706 8775 8020 1902 6318 3894 5779 
8604 9816 7417 785 2352 3821 9880 6553 1914 
1239 2947 6741 6129 3225 6296 4242 5014 3104 
3460 7170 4087 6643 166 3820 6350 8624 7927 
8050 9454 3649 2683 8068 2510 3609 6160 5609 
9401 7450 9115 5215 3716 186 3365 5192 4339 
1563 7870 109 7584 3754 3591 8187 340 4908 
7059 2391 672 4736 3765 7716 7510 8700 2148 
3877 6331 8962 7174 8726 1946 6578 4079 5816 
3230 6606 4715 4469 5321 6787 637 2856 7462 
9209 8413 6234 7853 4545 6439 7552 4171 7496 
7314 5412 5640 1924 3151 4418 7377 3367 8915 
1793 77 858 7821 1906 1368 4461 1777 9873 
1806 8080 5140 5676 2310 1875 1497 7037 6159 
1644 2760 2231 7331 2452 5677 1320 4484 7058 
4613 9179 4433 5672 9067 6966 9191 7926 4161 
2874 2902 4819 5869 5992 9312 1435 4405 3564 
6101 9866 290 8744 7987 5949 735 5389 325 
2625 7486 9165 1014 38 9044 4465 140 5826 
7175 4472 8036 2330 7428 6496 3652 2287 7719 
9804 4972 6073 9166 5353 2011 644 6554 8412 
5767 8554 5070 2797 927 3792 5001 9101 8941 
9202 3720 20 6012 4331 7546 5120 7135 5514 
5150 1021 8472 4910 8289 1660 5955 604 8721 
4306 3643 8482 8228 1536 6178 991 656 2577 
4072 3624 938 4464 6195 4398 6217 8185 3048 
9659 7248 9788 8013 1596 2603 3592 9522 2096 
2602 7902 4929 8643 9591 8630 8306 8579 8783 
959 2081 6443 173 8179 9024 3518 5131 2821 
1716 3852 1707 9021 2544 88 9932 2536 3658 
1249 8303 9468 444 6812 8896 650 5857 5932 
6845 8687 3605 738 4914 2521 1323 2444 6953 
8404 8363 1794 7755 615 9138 3666 3170 7796 
3657 8042 6751 5045 9576 333 8978 2080 4189 
5162 6749 942 7800 3546 2044 961 6239 7324 
6773 2168 3662 6840 3846 7477 5440 7239 7359 
2099 4960 1141 6151 920 2478 863 8422 3972 
3366 7726 5845 9862 4785 2381 4259 7502 3665 
2409 3141 3320 6757 6260 3573 9471 4166 574 
5691 8780 5422 2208 2201 9653 7666 5057 2383 
9635 4750 4488 2519 5787 7892 6871 9148 6488 
6108 1304 520 6452 6549 2790 2124 5027 629 
2176 4188 1379 2209 4254 2272 7504 1157 7994 
6963 3379 4233 2672 9075 1351 9759 1974 957 
4388 4993 6624 2417 7456 3514 7213 5323 6340 
6955 3493 7222 1559 5919 7685 6052 1731 3165 
3709 7236 788 7660 7866 418 3448 7680 4074 
5607 4423 8120 6636 427 3045 9925 6617 1769 
8292 9239 7401 7613 999 1068 3918 7661 3304 
6042 6631 5183 6572 31 2735 9214 3312 6948 
8813 1860 1883 3528 9469 8088 593 5033 5910 
6453 1550 21 1519 7541 9436 1726 8876 9732 
8151 1622 5663 2034 9749 9415 8340 6666 6769 
1545 2828 5591 9022 9961 8644 7684 5216 9926 
29 6262 7392 706 1570 423 4653 899 9054 
33 2620 1847 9955 8838 7311 4098 6329 8254 
2875 3511 6551 8602 8305 7834 7526 7181 360 
8257 3823 9032 2813 8304 7733 203 5579 1426 
3868 5101 725 6199 620 8441 875 2517 685 
6935 8276 87 286 8576 4034 4841 2837 4954 
7226 5618 9535 3913 654 1383 3222 815 8234 
7907 3070 2198 2540 4338 797 8215 5428 8719 
9992 9004 3424 8406 8727 3310 7189 575 164 
7192 3647 3073 9967 5595 8293 4980 8764 1632 
257 1960 7708 954 8672 9562 3210 8971 5815 
7381 6285 3308 4353 860 3761 6534 7671 5585 
5476 8197 1488 4529 2035 4 1394 7382 2570 
926 5046 789 1959 382 4094 783 4297 1689 
9507 6592 2639 4184 7229 318 6595 1968 7434 
7293 5494 9379 3474 5255 6172 1758 1361 2212 
7931 6530 1936 7920 8437 7334 5557 2378 4650 
8991 6828 2277 5091 425 9539 2095 8263 7835 
4815 7812 6384 8346 5727 5952 8547 8487 970 
6223 2805 9265 9359 5671 3558 5658 6083 23 
5678 6827 2256 380 4449 351 6041 6268 5105 
6292 8610 3672 7388 1741 195 2313 231 3159 
2852 7757 1681 5300 11 5466 2127 3302 6359 
4432 4887 732 5855 6407 94 1200 5268 4923 
3935 2693 9406 2555 8152 6957 8594 46 5883 
5052 7225 2055 3526 5905 921 9048 4111 2203 
39 1184 8732 7862 9483 3610 2799 7709 5340 
6017 6207 6020 310 6654 59 2900 105 6120 
7557 7900 1612 8570 4940 6486 6980 8131 3217 
9068 2816 4359 8506 8287 7640 1509 4009 7325 
4765 6710 7211 4148 5920 2960 8543 4476 756 
6618 8031 6782 4619 595 4735 7599 5113 4060 
5828 5171 150 4162 8395 866 1888 2092 3136 
1230 8196 4295 4159 2566 1667 7964 8447 8617 
9440 386 2572 9418 9498 7159 3898 2993 3715 
6320 9238 6694 5594 5193 8214 2985 7136 6675 
6197 1986 5661 7711 3355 8879 1410 5393 8240 
5188 1190 5065 8597 6868 3603 764 8575 1703 
6419 7057 2537 3486 35 3022 6236 372 9645 
4123 4934 7244 5472 4936 2 3139 3574 250 
7246 1250 5681 2682 9666 3667 1316 4518 6465 
6598 6238 5396 843 4794 5967 3351 9638 4771 
3290 6243 7577 8329 5984 8681 8372 8834 2031 
8848 4847 6405 8109 4386 4601 6476 3770 5958 
6577 646 6707 6936 9314 6068 1869 1680 7116 
5629 8327 9547 6928 5480 5674 8097 7353 4447 
3529 5453 4127 5223 4590 5343 5554 4334 7351 
6003 481 5246 540 7445 9200 4905 1522 6907 
7545 3816 1400 4504 4780 5096 2951 1432 6039 
6040 3886 3964 397 9771 5094 6969 165 1543 
4656 7056 1175 8771 5908 4404 747 963 92 
639 6775 5979 7675 1297 8058 7673 5142 1112 
2288 4516 5130 4589 2661 408 7609 2756 7210 
2940 342 4813 4282 1045 6847 5011 7055 6833 
2485 6338 5296 5187 7769 3623 6107 8869 513 
666 760 6886 9504 9007 4431 4269 304 5728 
834 4883 477 5482 9423 9136 4302 5914 5324 
4393 5086 8520 6332 3314 3031 2229 7667 9517 
1796 3179 1365 8561 230 8639 2079 7097 159 
716 6471 478 2554 6780 9452 7285 1604 7068 
3439 2561 6510 8708 6116 2826 6785 5830 4685 
4665 2769 2606 7223 2980 2109 3330 8485 2691 
9825 9882 6483 9805 5325 1787 5400 7544 2705 
2810 746 2151 3922 6379 3930 388 7029 80 
2587 4573 8725 8521 7738 5457 426 4436 7784 
9561 2357 6778 8201 2806 981 8475 1861 9071 
8224 8253 9014 6984 8463 7562 6509 1873 9397 
4107 5157 1144 5178 4748 6883 3602 2527 2942 
9473 5359 1525 4713 7495 2991 1077 5697 7831 
3341 3849 5286 110 9321 4912 3131 236 7879 
3240 9649 6441 801 9974 3977 3728 2516 5569 
9111 4527 7336 8529 2262 3895 3346 9764 7420 
2800 4953 1423 5821 7108 9259 7050 3005 2741 
2354 847 6461 9626 6424 7106 4824 1011 6078 
9099 8960 90 8144 8471 6438 4773 4357 5784 
973 4515 5927 556 1874 4407 3144 2529 4816 
589 6923 8461 6013 5416 1728 8364 7647 5840 
6801 6858 7768 7126 8057 3692 8464 1616 4076 
2659 9564 7795 7253 9387 9478 6093 8724 3115 
7819 8673 7776 3370 5575 3375 6138 134 135 
5717 7842 3567 3769 2590 6791 2838 5239 8488 
367 5253 594 8566 7649 3848 7139 185 4988 
9289 5796 5447 4563 1483 5740 6399 2549 9633 
8897 6937 3717 1408 2784 5102 8995 2576 6651 
5698 1837 2220 8414 1816 4950 2830 1084 7224 
6555 7408 6943 7013 3551 9124 2872 8206 1866 
3970 8685 8250 6381 4674 2941 8932 2473 225 
4562 7158 4942 862 6531 4778 5848 2641 5230 
3874 7997 842 2274 7707 8324 1387 3676 9172 
3515 8587 9480 3146 2818 2273 2877 8209 9093 
269 145 5934 3209 7875 5535 1468 7286 155 
5322 9285 7204 494 1117 9345 1578 2671 3278 
9205 4316 2724 3883 729 1720 8557 1346 6714 
1943 1697 385 5129 6562 3779 5924 723 9000 
6142 7970 2928 8731 6662 733 1234 2442 8181 
6190 6029 2429 4298 4264 1097 548 898 6836 
1608 9152 3454 6994 7228 6729 5243 2348 8492 
126 4543 5387 9881 5662 9615 4478 8788 707 
7137 6181 1702 7214 2434 5185 354 375 1662 
1461 7965 7571 9113 3827 5519 4176 6786 4058 
6392 4310 9711 8400 9610 2420 4505 7967 2740 
9083 3259 2465 9231 9798 3887 1655 8002 7252 
1384 2263 9596 6412 2557 5969 7020 9945 8358 
1901 5604 4744 5071 9912 7534 4992 3688 3749 
6253 2414 6351 7160 9599 5298 6664 8552 765 
3311 9494 1746 2911 4288 1988 9466 5602 5506 
1166 169 6057 8942 4770 3384 7654 2105 5272 
709 4179 679 2882 8667 819 516 9505 8342 
9315 3232 350 5002 9793 6474 1818 6319 5559 
9311 4663 4879 1469 5864 6265 5439 1037 9800 
2474 6449 3212 2736 6846 4791 7295 1712 2977 
2812 6312 3496 6301 5072 664 4027 3566 1587 
3001 4594 9472 4583 9104 5546 5297 1416 2773 
5916 6413 8285 1917 4462 8084 4165 374 3049 
2206 9553 2082 5088 8298 3510 4113 5555 4477 
6282 6941 1319 8216 4717 669 5903 8449 6385 
5176 8452 7406 1180 1439 124 8827 7148 1499 
7096 8230 8950 8825 4204 315 222 4317 5156 
3768 6784 8819 4266 2021 8462 7633 2841 4119 
5309 8987 1930 2656 1576 9935 7354 4507 2447 
7979 5871 1270 7440 3960 6376 1147 676 6356 
8375 1020 8101 8668 2195 868 3793 4895 6221 
4664 8348 4197 5061 2142 233 840 5115 623 
9364 9280 1763 7138 9654 6468 5503 149 5415 
3979 9464 1467 5212 6974 2347 4378 3775 2371 
3719 6821 86 6152 9989 3339 7996 136 4838 
3727 1825 501 8679 7893 1878 2270 1072 5710 
8957 2866 3650 2037 4348 2423 3354 3561 5743 
4917 1058 8398 7763 9197 288 7816 9366 2894 
9102 3490 255 1504 1456 8514 1991 168 5527 
5537 9824 8802 1155 873 5849 3178 622 9714 
6528 7474 2943 3052 6634 8684 7547 5528 6368 
8016 2278 2573 9493 4213 9046 2426 7999 8022 
7952 7193 8872 83 5737 1848 1342 2932 2181 
7947 3934 5829 6204 454 4821 5735 7854 8799 
2214 9858 992 9585 5886 9005 1907 4921 9206 
3928 3246 6696 2739 8288 9026 7672 6699 6915 
1133 2663 538 9875 8531 6504 9916 1530 3921 
8902 9708 3906 1659 3942 2088 6972 4093 2331 
7747 4758 9367 3479 5922 5867 7988 25 9218 
1359 9328 6117 221 4525 2999 98 9137 5483 
4971 4324 8749 1867 3588 5936 5444 8018 2863 
4928 2251 3381 2177 7062 6863 8062 9002 4654 
8844 8178 1135 7154 8692 9514 4997 1438 9604 
5911 8468 2995 8977 6959 4535 6484 3449 5693 
9990 8465 5782 4487 9061 7337 7748 7294 7627 
7003 3128 8988 4629 5713 3272 9089 5329 8149 
1711 564 3234 7686 9878 8510 1575 362 2844 
3841 7972 440 3892 8273 8354 7896 6281 1624 
3734 7614 1110 9445 8999 9324 9763 8049 790 
6371 1947 2188 5637 137 3860 4603 6766 6973 
9826 8371 511 6944 5613 3542 1152 1242 1182 
9186 8337 7566 2946 9697 482 3687 4633 9664 
8961 9577 2905 6604 8674 8301 2876 8748 5043 
7105 6983 2249 9161 1186 9510 582 6734 4498 
4458 5234 705 9552 1891 2597 7600 8106 3513 
3850 6245 5721 1151 1661 8593 2149 4849 5497 
406 274 8277 2242 4215 495 3295 2304 5326 
2783 395 2472 4818 1496 7615 1429 539 7520 
7536 5631 1294 7363 2890 2595 9525 2190 5404 
8691 4679 9919 3843 5790 6506 9180 6025 6880 
2636 1409 1552 4275 55 9896 3862 736 4859 
9655 4999 2384 4695 1422 5718 1405 1039 1581 
9640 4156 695 688 911 7563 3579 2766 2299 
6556 510 2049 6054 2182 1002 1583 3940 5053 
4699 924 9334 5225 4097 9612 1283 6004 6912 
2164 8457 7702 1620 2125 6878 5630 6958 9952 
8162 9720 8973 9403 9492 2525 2711 9252 6442 
2364 7341 4294 2552 463 4174 7884 568 3923 
953 6849 2401 2119 6633 8940 6247 4035 66 
7561 435 1615 198 270 3004 5574 2965 5625 
5772 1224 7390 3799 6763 9601 5931 3835 1524 
8507 7380 8473 4804 4402 4182 3191 9874 1371 
2024 376 3794 7051 450 6635 1956 526 6613 
5221 305 4519 5263 1216 8968 4678 3357 4661 
7426 2043 7235 7141 5367 1889 914 988 3338 
7470 9519 1507 9713 9372 8875 9416 3340 3920 
3419 4734 5619 8934 6298 5265 9516 4002 9787 
5295 6831 7713 3167 9643 7945 4320 3630 5281 
6055 6119 1308 6445 1823 2979 4048 7271 2061 
6764 6347 5386 8296 8163 3459 6007 8221 2466 
4848 4961 1382 6267 9867 2382 3143 6432 3834 
3927 6680 2200 2106 7766 7433 3268 4042 9879 
6601 7591 7424 2867 663 3730 3405 2755 1381 
689 2345 99 7422 796 6804 4185 6964 5118 
3282 941 965 3362 5755 2374 6703 9066 9074 
8023 2074 8331 6862 8707 1950 7370 1779 2808 
2885 2028 9721 3491 3947 4299 5603 9769 7255 
2786 3739 4178 4958 1778 9822 8071 7639 3382 
6065 9792 7265 8476 3851 2336 9073 3409 2362 
8794 5007 2615 3648 3299 4251 7646 5316 3263 
1618 5660 3350 9616 9408 5462 5493 7090 2197 
2759 5098 7829 2787 2692 3068 2315 5306 3485 
6246 9078 6118 1790 8738 1962 7030 1470 2771 
8489 6895 2244 6711 5742 9286 4341 6777 2893 
3319 1535 5940 6109 1921 912 5461 8061 7356 
4486 1916 8073 7232 4168 7943 1046 9477 4501 
4646 4130 8818 1286 536 6920 1425 7869 1210 
5123 2804 6826 2103 6761 6750 9051 769 2884 
6044 4274 1123 1476 1403 3174 1173 278 2713 
3243 3575 1233 3763 5425 6429 3547 7621 2581 
5616 8544 8266 3095 1345 1755 4451 6477 2295 
1042 793 7657 5023 9059 6417 887 7820 6882 
4006 8709 9634 1129 3608 3903 2255 5689 1443 
1877 5522 5126 2045 7024 1884 9598 5942 531 
4755 8659 9131 2254 2563 7089 1553 4598 2667 
483 3129 5664 2545 4153 8675 9617 119 8745 
9039 5909 1718 6583 1913 993 4941 2217 2873 
1284 2788 1696 9271 5224 7963 1795 6473 5831 
9077 9752 627 7774 6200 7036 496 2469 8559 
447 4425 6404 8686 4756 8634 9277 9447 7912 
2036 728 9160 9291 980 8693 8168 2451 2063 
7281 9888 1248 3158 8153 4884 5024 8295 7794 
7917 7430 6177 5788 3737 6270 7134 5939 2014 
1699 8860 3270 3506 3646 1380 7352 3682 3025 
9302 9794 3556 3371 8854 4044 1298 2373 2167 
7103 8081 5250 2496 8800 4311 5278 9279 5109 
5312 3993 3714 780 7901 4308 3400 2725 3946 
994 2660 3125 7409 147 5090 7720 272 1201 
4246 1785 2282 3512 9650 9404 163 3461 2568 
3589 9734 3385 8676 3148 3593 3981 7941 745 
972 8155 323 1436 8261 9053 4307 9025 6056 
1453 7789 2745 5486 5810 5380 1337 9424 2664 
7369 4248 8953 1927 6790 3910 6947 6444 4038 
3656 3334 958 8247 1788 4648 7706 9613 1577 
2608 4593 5833 2252 5824 1477 8172 6870 5812 
4510 6987 204 2341 3880 4147 6718 4490 9730 
254 8232 6354 590 8669 885 4698 4970 1749 
2471 719 154 4300 1964 7054 4385 217 1392 