# vtk DataFile Version 4.2
Generated by LIGGGHTS
ASCII
DATASET POLYDATA
POINTS 10000 float
-0.00518378 0.00132153 -0.0407752 -0.00108247 0.0010651 -0.041096 0.000828253 0.00157497 -0.0410937 
0.00247941 0.00229943 -0.0410325 -0.00434132 0.00290566 -0.0408781 -0.00265627 0.00394941 -0.0410149 
-0.00117613 0.0029314 -0.0410876 0.000568688 0.00335364 -0.0411009 -0.00542758 0.00501943 -0.0407523 
-0.00135444 0.00521193 -0.0410848 -0.003694 0.00542979 -0.0409392 0.000436682 0.00539439 -0.0411009 
0.0026978 0.00581542 -0.0410164 -0.0063001 0.00676215 -0.0406132 -0.00454176 0.00704378 -0.0408516 
-0.00645726 0.00861882 -0.0405903 -0.00308424 0.00808199 -0.0409869 -0.00128973 0.00813751 -0.0410871 
0.00184675 0.00782057 -0.0410625 -0.0046933 0.00887094 -0.0408317 -0.00320828 0.00990023 -0.0409839 
-0.00141549 0.00992818 -0.0410776 0.00183008 0.00963331 -0.0410625 -0.00545259 0.0123917 -0.0407398 
-0.00224828 0.0116861 -0.0410395 0.00130073 0.0113522 -0.0410798 -0.00411441 0.0135822 -0.0408982 
-0.000446012 0.0130472 -0.0411036 0.00134236 0.0132146 -0.041081 -0.00601901 0.0144333 -0.0406577 
-0.00175158 0.0142824 -0.0410653 -0.00447901 0.0153415 -0.0408641 -0.00277483 0.0158898 -0.04101 
-0.000525685 0.0156117 -0.0410981 -0.00600952 0.0163042 -0.0406579 -0.00406945 0.0171341 -0.0408998 
0.00116086 0.0164399 -0.0410916 -0.00603059 0.0181037 -0.0406592 -0.00177326 0.0174663 -0.0410645 
0.000826193 0.0182067 -0.0411 0.0026564 0.0174329 -0.0410181 -0.00305986 0.0189319 -0.0409892 
-0.000694438 0.0191518 -0.0411003 0.00231779 0.0192027 -0.0410395 -0.0104226 0.00105071 -0.0397633 
-0.00868527 0.000898193 -0.0401744 -0.00692627 0.000985973 -0.0405134 -0.00377933 0.000907857 -0.0397336 
-0.0019902 0.000891773 -0.0395668 -1.81425e-05 0.000898392 -0.0396612 0.00207021 0.000899541 -0.0399791 
0.00358878 0.000893316 -0.0409462 0.00538298 0.000906412 -0.0407497 0.00724079 0.000906695 -0.0404659 
0.00902078 0.00100651 -0.0401071 -0.0119455 0.00269098 -0.0393354 -0.00947328 0.00255491 -0.0399968 
-0.00771056 0.00262036 -0.0403718 -0.00272396 0.00220218 -0.0405503 0.00441647 0.00248412 -0.0408679 
0.00624679 0.00248493 -0.0406216 0.00808607 0.00252715 -0.0403009 -0.00849084 0.00397819 -0.0394863 
-0.00559635 0.0035329 -0.0397694 0.00280342 0.00400826 -0.0405898 -0.0102903 0.00410504 -0.0396178 
-0.00705079 0.00430664 -0.040495 -0.00383339 0.00413702 -0.0396693 -0.00057404 0.00412407 -0.0398875 
0.00123575 0.00441913 -0.0398244 0.00435748 0.0048553 -0.0408737 0.00690384 0.00421399 -0.0405188 
0.00862124 0.00461302 -0.0401912 -0.00925123 0.00549663 -0.0400564 -0.00755871 0.00570492 -0.0394895 
0.00599345 0.00575594 -0.0406627 0.00768109 0.0063119 -0.0403777 -0.011063 0.00644575 -0.0395835 
-0.0020964 0.00669948 -0.0403913 0.000192558 0.00715411 -0.0408227 0.00444595 0.00665013 -0.0408603 
-0.0122723 0.00779878 -0.0392255 -0.0079248 0.00760044 -0.0403278 0.00382781 0.00833468 -0.0409347 
0.00629557 0.00809442 -0.0406142 0.00844505 0.00818014 -0.0402294 -0.0101586 0.00946429 -0.0398306 
-0.00827182 0.00948915 -0.0402659 -0.00223257 0.00900451 -0.0397027 0.000237772 0.00895211 -0.0405941 
0.00501922 0.00957674 -0.0404213 0.00834339 0.00997506 -0.0402462 -0.0111189 0.0109554 -0.0395685 
-0.0093758 0.011068 -0.04002 -0.00540696 0.010361 -0.0401196 0.00347948 0.010336 -0.040954 
0.00662033 0.010368 -0.0405678 -0.00824502 0.0124437 -0.040265 -0.00690776 0.0112678 -0.0405201 
-0.00397867 0.0114164 -0.0404049 -0.00042169 0.0113334 -0.0405652 0.00316883 0.012107 -0.0409815 
0.00519536 0.0114594 -0.040773 0.00697704 0.0121277 -0.0405036 0.00871758 0.011782 -0.0401687 
-0.0124067 0.0124821 -0.0391848 -0.0103586 0.0125655 -0.0397791 -0.00683407 0.0132886 -0.0395344 
-0.00173046 0.012938 -0.0398562 0.00461806 0.0131592 -0.040848 0.0084256 0.0136432 -0.0402323 
-0.0114169 0.0139829 -0.0394841 -0.00828838 0.0142404 -0.0402567 -0.00300714 0.0144932 -0.0397988 
0.00068717 0.0143218 -0.0398281 0.00347218 0.0145415 -0.0409589 0.00511365 0.0145849 -0.0398807 
0.00666193 0.0138967 -0.0404828 -0.0114638 0.0159026 -0.0394678 -0.00997722 0.0149738 -0.0398752 
-0.00855889 0.0160166 -0.0402068 -0.00706534 0.0153122 -0.0394895 0.00255679 0.0158461 -0.0401287 
0.00598929 0.0159446 -0.040662 0.0076713 0.0153798 -0.0403816 -0.0100219 0.0171331 -0.0398603 
-0.00153675 0.0162556 -0.0397591 0.00415241 0.0162031 -0.0408754 0.00761833 0.0172371 -0.0403937 
-0.0121269 0.0175646 -0.0392759 -0.00751646 0.0175519 -0.0397246 -0.00285972 0.0177369 -0.0396603 
-0.000311296 0.017565 -0.0398658 0.00528494 0.0175934 -0.0407619 -0.0111035 0.0191437 -0.0395752 
-0.00929897 0.018846 -0.040041 -0.00755905 0.019206 -0.0404082 -0.00465634 0.0192035 -0.0402186 
-0.00182246 0.0192055 -0.0397168 0.000401657 0.019203 -0.0396665 0.00409959 0.0190309 -0.0409048 
0.00568996 0.0192062 -0.0400881 0.00744613 0.0190351 -0.0404217 -0.0153122 0.000899073 -0.0381429 
-0.0136294 0.000899594 -0.0387737 -0.0118344 0.000915585 -0.038684 -0.00922805 0.000887018 -0.0384377 
-0.00752671 0.00129873 -0.0388495 -0.00577746 0.000898081 -0.0391347 0.00431741 0.000898087 -0.0393068 
0.00609788 0.00103185 -0.039097 0.012365 0.00090044 -0.0391954 -0.0144224 0.00248899 -0.038486 
-0.0104527 0.0022646 -0.0384374 -0.00868954 0.00258711 -0.0383817 -0.00474846 0.00239008 -0.0386795 
-0.00298506 0.0026916 -0.0388424 -0.00100552 0.00237787 -0.0393891 0.00206567 0.00259021 -0.0393166 
0.0109668 0.00195615 -0.0396137 -0.00699632 0.00302058 -0.0387717 0.000470952 0.00318439 -0.0387693 
0.00381541 0.00298151 -0.0392543 0.00532054 0.00379465 -0.0397913 0.00693662 0.00314944 -0.039075 
0.00981921 0.00330326 -0.0399165 0.0115184 0.00366897 -0.0394533 -0.0152324 0.00460106 -0.0381734 
-0.0136234 0.0040738 -0.0387837 -0.0118605 0.00440565 -0.0388079 -0.00217513 0.00487812 -0.0395241 
0.00367306 0.00477151 -0.0392163 0.00659445 0.00493826 -0.0389018 0.0128197 0.00494625 -0.0390494 
-0.0147902 0.0063385 -0.0383455 -0.0131066 0.00622892 -0.0389572 -0.0100629 0.00545964 -0.0384589 
-0.00586511 0.00529468 -0.0390422 -0.0034239 0.00615343 -0.0393216 -0.000656319 0.00596244 -0.0396138 
0.00221783 0.00582408 -0.0392904 0.0108696 0.00570437 -0.0396411 -0.0090357 0.00691839 -0.038997 
-0.0067522 0.00690635 -0.0384261 -0.00511226 0.00691827 -0.0391565 -0.00216009 0.00723964 -0.0386534 
0.000973958 0.00712148 -0.039203 0.00294823 0.00741947 -0.0396708 0.00574648 0.0065193 -0.0390547 
0.00726562 0.00748102 -0.0390795 0.00940418 0.00667648 -0.0400106 -0.0157161 0.00783447 -0.0379793 
-0.0139731 0.00795828 -0.0386629 -0.0105487 0.00794714 -0.0387362 -0.00891542 0.00868962 -0.0387988 
-0.00712737 0.0085905 -0.0389233 -0.00534757 0.00870686 -0.0391639 -0.00366918 0.00797768 -0.0392899 
-0.000737162 0.008056 -0.0393829 0.00172879 0.00872352 -0.0395177 0.00487578 0.00802775 -0.0395047 
0.00974528 0.00848469 -0.0390283 0.0114693 0.00823205 -0.0394709 -0.0149368 0.0094258 -0.0382872 
-0.0132971 0.00983408 -0.0389024 -0.0115393 0.00944695 -0.0386885 -0.00387821 0.00976058 -0.039334 
-0.00125709 0.00985073 -0.0384542 0.00351822 0.00931474 -0.039475 0.00687405 0.00922996 -0.0392055 
0.0100948 0.0100466 -0.0398431 0.0122784 0.0098206 -0.0392272 -0.0148526 0.0112192 -0.0383301 
-0.0121733 0.011047 -0.0381218 -0.00952599 0.0103317 -0.0383887 -0.00786581 0.010861 -0.0390633 
-0.00631021 0.010142 -0.0385311 -0.00239188 0.0107848 -0.0394919 0.000268636 0.0102271 -0.0393273 
0.00205069 0.0104894 -0.0394945 0.00420845 0.0109911 -0.0393494 0.00739723 0.011007 -0.0390806 
-0.00901798 0.0121728 -0.0386513 -0.00592019 0.0117951 -0.0391127 -0.00424059 0.0113734 -0.0386269 
-0.00104066 0.0116234 -0.0386498 0.00194984 0.0122731 -0.0396776 0.0113231 0.0113178 -0.0395139 
-0.0140179 0.01324 -0.0386436 -0.00504511 0.0136385 -0.0393685 -0.0034577 0.0128023 -0.0393852 
0.000193153 0.0126276 -0.0394807 0.00372981 0.0127234 -0.0393572 0.00566379 0.0127489 -0.0394432 
0.0103293 0.012785 -0.0397951 0.0125261 0.0126041 -0.0391463 -0.0159419 0.0145062 -0.0378897 
-0.0125039 0.0140016 -0.0380659 -0.00990012 0.0137777 -0.0385402 -0.0083065 0.0146001 -0.0383953 
-0.00397482 0.0146772 -0.0382957 -0.00231034 0.0137029 -0.0383373 -0.00105172 0.0145564 -0.039434 
0.00269168 0.0142091 -0.0393813 -0.014052 0.0150378 -0.0386232 -0.00988353 0.0159458 -0.0383702 
-0.00528408 0.015415 -0.0392724 -0.00238302 0.0154976 -0.0383658 0.000596315 0.0160718 -0.0394363 
0.00964205 0.0149402 -0.0399601 0.0113381 0.0153478 -0.0395043 -0.0152846 0.0162616 -0.0381595 
-0.0136978 0.0168645 -0.0387507 -0.00812506 0.0163834 -0.0385101 -0.00628348 0.0167742 -0.0386785 
-0.0036518 0.0161371 -0.0394628 0.00509497 0.016136 -0.03898 0.00692388 0.0163018 -0.0390336 
0.00870774 0.0162755 -0.0392171 -0.0106462 0.0176385 -0.0382529 -0.00486649 0.0176367 -0.0393686 
0.00156805 0.0175723 -0.0395993 0.00383106 0.0174829 -0.0396539 0.00586983 0.0177532 -0.0390518 
0.00956369 0.0176519 -0.0399812 0.011312 0.0175349 -0.0395143 -0.0145706 0.0192021 -0.0384311 
-0.0128795 0.0192001 -0.0390366 -0.00961275 0.0191076 -0.0382987 -0.00785581 0.0192083 -0.0386463 
-0.00616574 0.0192013 -0.0392476 -0.00331948 0.0192051 -0.0387362 0.00235353 0.0192023 -0.0392454 
0.00414859 0.0191725 -0.0391255 0.00889828 0.0192037 -0.0393767 0.0106671 0.019202 -0.0396933 
0.0124918 0.0192016 -0.0391618 -0.0168707 0.00150155 -0.0374836 -0.0127518 0.000890434 -0.0371556 
-0.010608 0.00089653 -0.0372872 -0.00830895 0.000893007 -0.0368973 -0.00649332 0.000900153 -0.0374325 
-0.00471258 0.000893512 -0.0376906 -0.00297255 0.00106271 -0.0380832 -0.000936505 0.000981716 -0.0381181 
0.00119533 0.000896696 -0.0383407 0.00291978 0.00138911 -0.038297 0.00503677 0.000895274 -0.0376644 
0.00785146 0.000893969 -0.0387549 0.00995065 0.000895442 -0.0385838 0.0140843 0.001461 -0.038621 
-0.0188783 0.00172479 -0.0365078 -0.00949885 0.00223401 -0.0368217 -0.00750929 0.0024933 -0.037025 
-0.00213476 0.00241148 -0.0372412 -0.000345663 0.00248982 -0.0373324 0.00536346 0.00254172 -0.0384634 
[...]
POINT_DATA 10000
FIELD FieldData 7
id 1 10000 int
1976 9530 4996 850 6973 7865 3676 4780 9938 
9965 9272 9534 8857 3812 1200 3096 8101 3996 
7777 689 212 8189 5348 9815 9550 7495 3213 
7361 4888 7684 5298 5774 7318 9991 6786 7683 
1506 2701 6116 9943 6212 2488 3930 5189 5520 
5143 7383 685 1946 3865 5907 9411 3957 7588 
5354 8348 9829 3775 9783 3584 7334 3540 8853 
8506 5638 7915 1719 6031 5570 6146 7595 9138 
8686 6661 9647 9285 3922 7146 5770 6382 1126 
672 7869 5462 9570 9299 8147 9951 7331 5383 
6866 8106 7052 2894 9074 8636 2171 9649 4556 
9731 8794 5527 8508 9427 6802 5069 9405 1655 
5850 4054 9142 2821 383 9733 1895 5037 2549 
9277 2252 7233 7855 6147 6200 7730 5046 5833 
5432 2957 5577 6263 7835 2172 9716 6077 4336 
7015 746 958 4326 9153 6511 7695 7709 9919 
5933 7003 4582 7895 5103 3551 1361 920 3316 
6718 2638 9410 3190 4200 8435 4951 9666 6100 
1840 9857 8685 2869 3431 57 8958 7917 2591 
9 226 4119 8498 7266 1494 8786 9718 5604 
8650 3991 8799 9642 9827 7573 9202 5214 7615 
4844 1165 9710 6024 8701 7584 9921 8004 7125 
1610 8536 7732 6746 5421 7629 3732 3651 4227 
6995 5965 704 9282 7655 944 9931 5096 4992 
7055 8566 7969 9759 9964 1124 7534 7522 8707 
5030 1637 7175 9869 6463 4225 9229 5065 5861 
3117 4399 3544 5457 7511 5258 7439 3719 6536 
911 1949 8046 4249 9574 4111 9738 7498 3186 
6493 9527 5435 5427 846 9831 7795 9913 7950 
8612 5025 7367 8219 9174 8092 7084 8195 9837 
2328 3054 5034 4408 5979 1572 1315 9675 4424 
9423 7953 8210 9361 5910 5289 1709 3047 371 
7783 6747 8810 7281 5819 2882 4798 3304 1156 
4023 5355 6337 9064 199 5471 9345 1430 9912 
7365 9772 9460 1551 4270 8185 9494 1931 6093 
8777 9485 5274 6459 5102 6696 9990 9907 193 
9562 1206 8787 7889 5243 5782 8289 5743 5437 
1850 8620 3250 7477 2104 7838 7268 4731 876 
4207 440 1615 9795 6975 4772 9445 1605 9826 
9863 2750 9246 5791 9454 1914 546 7370 4714 
8433 5021 8005 2680 960 9586 9511 2911 7119 
5398 3490 2620 8493 9121 6363 8209 9700 8266 
8258 2187 419 9116 4668 8385 4440 5179 3564 
9641 7483 8873 3511 8532 6592 2672 5716 4938 
2828 1095 4252 9873 9134 9976 9472 6187 9626 
313 9523 7189 7702 9624 6756 2308 2468 3139 
4294 6495 9648 8861 2724 9750 4389 444 8444 
7651 3509 7164 4138 4123 6017 775 4634 2949 
8573 2772 8296 2169 5544 8420 1488 2 7751 
2892 9200 6315 4813 6329 7659 3574 8846 8830 
3415 8228 111 4278 5409 4547 3769 6058 781 
484 6175 6346 3101 4602 6833 5781 4769 6617 
3222 6626 1809 9275 1579 8729 9895 1818 6543 
3255 2485 9199 6145 2399 9854 9326 3080 435 
8160 2137 6585 6880 987 8528 668 9722 3501 
9616 2589 9767 6259 3151 352 8584 970 3481 
7180 7587 5283 85 9764 758 5888 9238 9960 
7008 6400 8276 5779 5255 710 1660 548 7873 
3395 7215 9602 4624 394 9864 7217 7324 5167 
8672 6413 8627 5091 9245 9806 4934 8823 4251 
6550 4764 9412 7128 9945 176 8710 9100 8093 
6561 1762 1567 1415 8632 5122 9012 8110 1700 
5072 5124 5004 1861 9791 9768 563 2709 6013 
2473 1253 8559 8461 5090 8003 6799 1101 9294 
6844 5205 2675 5284 6848 2507 8201 8718 8631 
1435 9234 9141 8876 5140 2634 9810 4477 7859 
9387 361 7360 1541 6764 9363 9002 5338 8125 
8817 6700 747 2789 8687 7851 4982 6088 6457 
6699 8233 5417 4945 9552 8380 9548 9877 5365 
2312 5532 105 5509 3698 9544 2770 5156 1118 
5769 7149 1511 5806 3167 9908 795 129 7328 
5739 6163 5786 2969 7407 8022 5 4758 2016 
1219 9292 647 8613 1228 7497 9920 871 9084 
2080 541 691 8517 7946 2426 7039 2599 8396 
8713 1467 9838 5396 7216 8045 2567 4421 8342 
9995 3459 7012 9757 644 5564 9313 9582 4752 
8772 3874 1758 8287 9627 1339 9884 6968 849 
6381 9580 7032 7672 9458 4145 4015 2910 3952 
3896 675 7002 3894 9432 2275 9621 1024 5614 
600 9576 6562 6992 9615 2377 248 4661 7303 
3554 1252 6207 9746 3420 5764 9779 9568 9763 
1948 8158 6908 9804 591 6719 1049 4016 9549 
5826 2801 7254 430 4712 1384 316 1154 190 
5730 7493 439 7088 6213 9652 1246 9966 5082 
1196 5287 2763 6172 2213 8524 9459 2299 476 
4113 5450 8822 2652 5419 8577 5351 7551 9614 
4681 921 7170 8747 9032 5886 2444 9223 9673 
7098 7808 7721 9599 7283 6278 9156 5186 8964 
782 5003 6223 4725 7815 4219 1484 4186 2196 
9847 718 4647 5765 9681 8343 9830 2365 1499 
3471 6872 9911 9446 382 8946 8783 6374 8236 
4146 4 9591 185 1241 7984 8026 9645 1287 
9344 2393 1586 3580 6296 9667 5999 8580 6440 
4446 260 2413 6981 3832 4588 6232 2416 836 
2682 7822 9755 5620 917 4044 9707 4858 1580 
9133 7547 3462 3399 6917 894 3990 8131 3371 
1338 1601 8354 7839 5590 5937 1008 5688 6474 
1712 3443 393 5778 7419 7136 2514 6996 9745 
9778 9610 3577 8083 7690 995 3508 4747 9555 
8184 9606 6161 2917 9860 9493 8285 4197 6319 
4340 9482 9959 3840 7638 4355 4396 6836 9557 
9259 9539 2954 3020 7590 2677 9198 5301 4718 
5434 6204 4154 6980 9346 9378 8992 2643 1776 
9208 1681 2310 1852 2520 3188 19 9328 9110 
381 9979 774 999 100 2318 4406 3176 9834 
6618 8357 7532 3954 8571 9812 748 6697 9129 
1653 2529 3670 554 1587 3847 6018 1995 3320 
9732 5404 5080 317 7408 9905 3475 3303 1363 
3479 3107 4281 5613 9575 5364 4559 662 8324 
7723 7151 4537 4657 4315 8077 9788 8622 1292 
3938 6727 1696 9343 8202 7641 5738 7761 8824 
6547 7673 1755 7967 8965 9376 5408 8311 2153 
9828 6221 598 3674 1311 1421 9306 9661 6155 
9579 5119 8257 3653 7416 499 9803 8436 6225 
8615 8776 542 9680 387 2509 8933 5840 112 
6903 2622 4292 4645 4284 244 9882 8759 5973 
3851 2469 7241 3542 4623 3396 4338 4540 312 
3361 4076 1899 1878 8229 5906 7790 1088 9131 
8425 3064 2778 3594 1432 5170 5949 6359 2696 
1893 1881 4933 6311 6978 6602 9253 8579 5841 
2681 2703 5715 8341 4174 4189 4180 4829 2094 
5751 1985 4688 14 9430 666 5729 9055 8621 
3519 6537 4386 8872 1930 8504 928 9374 191 
1440 4856 7749 6731 3133 1573 4986 7698 9517 
1089 9916 9232 2817 1608 8009 7197 9850 9556 
1341 8974 9766 2505 1030 9009 6521 7421 1909 
641 3088 9846 3201 3781 3965 2246 9522 5608 
8017 63 4257 9797 853 9560 568 7153 9005 
4497 1890 3838 3103 3686 2788 2349 6816 6411 
6826 8779 6648 7523 3278 6129 3411 7184 6793 
2594 4792 9543 8808 2372 6179 3891 9594 9841 
6449 8337 9585 8410 9295 1419 8948 1577 3603 
7445 4466 1727 6869 6577 6174 1180 8262 3834 
136 7437 5055 4151 3738 4795 2017 3904 8758 
8910 9909 6110 3573 9162 7296 8590 7155 3530 
6660 1162 6750 7897 2025 9127 3149 1174 1915 
5494 2808 1766 1017 4689 1369 3529 7883 3743 
6744 6004 9498 5257 2216 4819 4498 8538 7431 
5075 4851 8388 1966 8064 7460 6679 6803 1987 
4231 7400 5918 1268 8752 359 2125 2521 3887 
5018 3123 3090 2592 7634 8373 8661 3735 3053 
3749 6814 6683 7983 4371 6902 8217 9851 9952 
4948 7366 7731 9504 5571 4436 7335 6229 3283 
5809 3731 6912 6771 4190 7313 735 8888 1728 
7596 3568 4380 7087 2430 7163 5166 8016 8170 
3439 4285 9384 5517 7371 7944 225 6564 4051 
5066 5502 8941 5492 1936 2378 9461 211 2278 
1761 6383 7509 4022 9045 3718 5159 3927 5005 
5783 9730 9505 832 8854 1542 281 2066 6234 
5641 7640 4349 2338 5196 9604 3868 9593 3553 
9839 4507 4922 8891 7733 366 3464 4450 7309 
522 4490 3889 4232 3525 2045 7025 3071 2616 
8645 2888 711 1841 2470 7038 2843 9532 9623 
538 5413 3482 8002 7594 3687 3199 7198 8657 
3933 5870 302 4069 4999 801 1884 6034 6681 
1442 7389 4304 9865 2452 2192 4785 9248 5856 
2562 8659 8753 2059 7310 9914 2541 9178 5262 
1331 1360 3680 5938 1215 1104 4271 5895 223 
9136 8424 3256 5741 5901 9983 7286 4576 2235 
8629 5092 6818 6535 4935 1569 1724 7517 4042 
8496 6998 9903 9825 7097 2363 69 9862 9855 
8826 9434 6081 2439 2012 9426 4519 8840 2798 
7374 4628 2386 7894 9856 6299 777 2670 2856 
1202 6256 5909 3704 5191 3011 7265 9329 7057 
6412 6827 3639 681 74 4095 2123 6421 3051 
8180 2539 4088 6283 9521 8583 2356 4012 6022 
6517 6448 414 2081 9561 1354 9164 4102 3786 
5341 3976 208 8432 6316 1501 2132 4343 6306 
2790 6796 9107 2448 4467 7194 2721 8070 9256 
4210 6932 5109 1853 2022 8864 5658 9749 91 
905 1526 700 9823 7878 4035 2839 18 161 
1043 1645 8877 9950 8696 5358 7798 7475 2270 
890 5213 2864 906 9221 9293 285 421 5953 
4226 4930 3664 8216 8452 1953 3078 1820 8921 
4010 6138 6326 5974 1768 1464 5197 9063 7518 
1358 9188 524 441 7720 1968 1557 5785 7427 
3469 671 7380 8222 6939 5137 6532 7396 6690 
412 4321 8806 4767 8139 3744 8588 7226 5976 
1612 3766 8427 6370 4412 8896 2005 8760 2605 
4633 9029 2241 3913 5740 6431 8781 2458 885 
8081 7505 6334 3506 4570 898 3995 2983 2615 
8053 5489 4514 9004 4474 9934 5666 1085 3662 
7775 2322 4821 7513 1630 9893 42 9179 3881 
8643 2527 9205 7743 9347 9424 2029 4660 1408 
9992 6348 1482 8035 7598 6392 1322 5322 6955 
5346 2105 8260 8270 4086 1359 9390 2540 6609 
2550 4135 6850 4691 9541 1509 2244 5636 3777 
6003 2704 6332 9261 9719 1969 5820 3804 2762 
4305 6142 9769 9444 679 6181 9836 4534 2100 
9533 8803 8971 7537 8456 501 1299 564 2205 
3771 9528 1485 8087 7474 5986 1407 6458 2785 
623 408 3980 7094 7455 1293 732 3505 1892 
9577 1685 3688 8421 2074 9776 2537 4418 9349 
979 630 4152 5397 5587 1798 9551 3292 6899 
2370 8300 6865 4193 7701 6480 2097 200 6067 
8293 1308 3600 9416 4754 9663 6841 7746 3461 
714 6997 7040 7768 5683 5029 8763 887 5310 
2036 1640 3737 5735 3609 8893 4635 9030 205 
1707 3389 9930 9956 7752 7231 2747 482 3895 
9676 5917 1207 2069 4578 664 3455 4420 6273 
2067 3447 5470 2415 1038 3112 6488 5336 2063 
8164 9989 9538 429 1257 8695 3747 5051 7566 
5635 1188 8157 5251 348 7113 2685 4636 2033 
2055 1138 8833 8310 6558 6429 5498 5579 3217 
9209 6107 7809 725 6497 7317 1720 7841 3923 
2841 6219 6261 283 2002 5333 9747 2477 274 
330 5063 5169 6987 2909 299 7115 9033 3966 
7632 8676 7338 659 9239 4256 6817 2261 6281 
5439 9583 8904 3947 3484 1082 2148 9787 5078 
4508 2612 4703 8032 8416 8067 5208 7280 8008 
1947 7975 2396 474 991 9968 5371 7712 7291 
5948 4965 1623 4390 8198 5987 6298 2834 8970 
1036 4860 6439 3978 9786 2136 5087 5064 4621 
7368 1260 5448 9708 947 4543 7347 1648 2796 
9689 9402 9741 2215 5378 9886 9554 8617 2694 
658 5403 6881 9351 2990 3773 300 8856 2577 
3944 9736 2887 9260 2996 4796 2849 651 4429 
9417 3049 4870 5657 6489 8798 9545 7305 5982 
8665 4881 5839 9173 2783 8918 4055 9853 7299 
5345 2802 8165 9465 6739 9572 9702 4604 5763 
1340 2964 4471 4348 8900 3935 405 450 7852 
3782 1317 7924 9631 820 4855 5992 8186 184 
2009 6966 6427 5315 342 6936 7779 6871 349 
4073 816 7904 6385 712 4916 1152 4346 3125 
365 6971 1265 3742 8734 940 5798 8372 5940 
7824 2311 3727 7936 7806 1428 8683 5222 4836 
4648 7435 5565 2958 7417 6985 8403 41 3986 
6954 3862 956 1620 629 2861 5234 1631 7834 
6512 6039 6394 830 7911 5991 2809 2427 5112 
5921 6443 8136 8630 6713 1508 915 9149 5036 
6775 878 4675 751 1678 1242 4245 76 2927 
1169 1353 9187 6983 9406 5165 7307 934 6152 
5380 4240 9782 7896 5285 7158 6328 9684 490 
5497 4806 893 2024 8703 6651 6714 4003 8333 
4403 7250 4428 5972 3468 1310 133 8024 5963 
9321 5474 7974 6601 8441 9546 930 596 6857 
618 6935 7821 406 8149 6630 1845 6541 5984 
6029 141 4009 2466 8140 8431 3520 5070 1222 
962 9013 7306 4382 1286 8956 7065 4129 5506 
178 2666 4871 8345 5093 5669 6375 5350 172 
863 5560 8411 779 9147 2913 7282 9335 7256 
9729 9651 2728 7185 5951 6121 5128 2021 4191 
1898 2050 1961 2086 6239 5016 3012 1395 4989 
6451 7707 8059 9705 7359 7080 1203 5723 740 
4181 4253 73 3880 4686 2403 7781 9206 2852 
7259 8811 8291 1505 2233 7981 4832 5803 9051 
6149 2474 2342 2236 165 6118 891 2366 5799 
6770 9439 4699 8322 4515 7036 9160 4417 9889 
3756 2880 1221 4302 5766 9947 7842 5203 3335 
1550 1918 582 7372 6456 1364 4946 1944 3513 
2313 7459 167 8604 5146 514 6520 9502 314 
3000 24 6450 5328 9685 4678 4451 2610 346 
9603 9456 5805 4732 9501 6657 2528 2824 9622 
1819 3797 2450 6834 3982 3452 6084 6972 4913 
5330 7968 8050 7951 9807 3205 7750 8223 4368 
9612 6352 9790 6628 7034 2560 3401 3144 6220 
4891 1216 1643 4367 2492 4379 5610 8831 4475 
7449 1388 8060 7035 2570 9019 2194 8842 7192 
1910 3839 1135 9067 3306 4807 7446 1741 7646 
7738 5052 2476 9597 5943 8740 2302 4687 1854 
7020 4360 7487 5490 9811 403 5710 6668 8771 
6015 1285 2583 5237 9558 5511 6735 3162 8495 
5290 7516 8014 6330 5800 9360 4117 5074 831 
6694 4900 4655 6462 6654 2963 7227 6113 1618 
9942 2482 6892 1370 7848 5104 6891 6365 5660 
5386 475 214 4218 6831 7188 7133 7196 3480 
9219 266 6613 3032 4579 6695 4921 2247 4592 
5628 336 862 376 7448 3841 7257 8066 7689 
2965 2518 7278 9085 9948 2106 9954 2443 9150 
4694 5667 972 2753 1443 525 9785 2781 4594 
3934 2110 8486 7554 357 1427 8719 7979 9970 
201 7323 8898 6788 3758 485 8370 1035 5230 
6490 9089 8737 726 3557 5006 634 56 8169 
497 8591 5936 6659 3312 9734 7401 3857 8465 
2340 6627 6265 2624 635 1255 6262 7496 2563 
4898 895 5882 6556 2028 5514 8843 1372 6302 
3998 9536 290 3779 6472 114 7005 656 6371 
7687 3607 3067 1027 9674 337 2998 1303 8242 
4127 9756 4400 9872 4552 1924 277 6327 3798 
6925 7471 6765 3640 6477 8450 4968 6074 5597 
9849 1559 5325 6026 4199 2987 9765 6085 6271 
5215 3138 321 2820 3066 4766 7747 1332 6297 
7606 8578 9578 8091 9969 9982 1613 1231 4131 
7863 9611 9276 1352 9678 9879 6623 7201 7467 
4072 1249 6897 3820 7784 1919 2288 4663 5650 
6846 1628 9419 1992 2394 9728 9688 62 8254 
8350 3723 3780 6927 3601 9094 6308 8107 5712 
6529 5043 2043 8802 3280 5019 1413 8682 6498 
1788 5889 9777 5733 9900 9287 7559 5576 1033 
1627 6821 1812 6990 8460 1230 2687 5343 4791 
345 9709 6280 9290 1355 5500 6380 9237 2722 
3083 3497 2984 6196 124 7085 1836 648 6504 
5478 670 870 2976 7494 5275 6933 7485 1534 
5020 59 3105 2070 2206 3941 7415 7972 2710 
2139 2226 5181 7787 4126 3510 9413 7677 271 
4901 38 5594 1397 2730 4499 222 545 611 
3333 7610 8599 2046 553 2145 6774 759 2993 
5902 6224 3619 8938 7543 8439 5551 2733 7056 
9303 1326 6726 8211 9898 1158 4535 1307 1481 
5183 2840 5536 6706 6331 3967 9040 4195 9381 
8405 6354 3563 791 8304 2212 5209 4024 2304 
5389 9214 8605 3767 138 8670 4079 5911 7569 
9609 6372 7729 4915 5780 7422 544 2141 9692 
451 7656 5238 7147 6108 353 7300 5256 9392 
7858 2334 2955 5152 9871 9878 5705 9148 1277 
4763 9754 227 9273 5465 7874 3034 814 2112 
8742 1368 1072 7515 4625 4616 9981 1160 8426 
7330 8249 7546 3722 3209 3931 149 3495 4215 
3902 7058 6102 4384 7024 9316 6653 8232 6853 
4893 2316 4932 2285 4239 4459 8325 276 2186 
1147 1028 3194 9881 7586 942 1037 9977 1593 
9740 8694 8308 5247 49 4937 9798 1062 5329 
8263 2503 8601 1401 7643 6287 9062 7605 1225 
3882 7961 1399 3872 8227 9196 2451 1021 3266 
9659 838 1956 1810 9231 8018 7621 9735 1107 
9175 2906 7792 6340 1955 6349 6209 8647 9266 
2848 3063 2096 1091 6057 426 1083 2385 275 
2660 3581 4730 1830 4562 5023 6677 7514 3365 
2650 9794 4121 9744 5678 4209 2489 1900 8513 
8909 2438 8041 4496 4750 2968 8769 9137 7212 
6092 749 9357 6274 2719 5640 8678 6065 5989 
8880 5015 8509 7928 1527 7461 2617 5768 5185 
6518 5944 9904 3153 6452 2723 565 1680 8156 
6684 738 698 1945 6454 3338 5184 6597 840 
1873 3091 7450 9650 9564 5429 46 1734 4057 
9665 1670 6030 9255 5395 5024 390 7887 3561 
7456 860 1999 5281 2497 7249 4248 7735 8973 
6953 5896 3030 5443 34 8954 9318 5698 6590 
9760 8542 2825 6811 5651 7190 6047 9379 7864 
8280 6143 6879 7293 2483 7550 4704 8058 3487 
5459 2437 5701 7764 6465 7352 9479 4768 6749 
5562 1636 9355 7875 3899 8778 7462 7908 8841 
5645 5157 7898 7748 5860 3646 8697 6063 4481 
7373 6424 3336 220 1846 6435 9169 8407 4061 
8015 1492 6377 649 4308 8700 5807 773 4865 
288 3357 6748 4265 9500 1957 2138 6257 6557 
7362 603 7540 7650 9547 6840 4960 4114 9388 
3528 6667 6680 6089 798 6820 9366 6918 537 
5481 8849 7109 7049 1582 3351 9368 7759 3259 
9894 4037 8061 424 5095 3166 5996 1713 6956 
2314 6807 5412 2831 9495 9588 5792 8481 2199 
2272 3214 3204 5299 6470 9833 4478 636 6906 
8942 1493 2296 4513 3400 45 762 1347 8692 
3961 9630 790 3291 261 3276 5453 9325 533 
9499 448 7804 4908 1210 9436 2134 2516 543 
8321 9269 4695 3585 8099 6140 5591 5647 8733 
1513 2936 1622 996 4683 6455 1863 8248 9809 
8730 8905 3128 1851 7274 427 6186 5433 2547 
9060 610 5744 8264 3690 6335 4516 1112 238 
4062 3597 4632 694 2268 154 4880 3163 9028 
1097 8744 3486 4295 2716 7387 3118 3615 6173 
3340 1723 4464 6692 3301 6111 6060 5229 7376 
9739 2054 351 1522 1145 6804 4757 6453 526 
9304 3325 4291 7145 4580 3248 3632 6048 7937 
4047 2327 9971 4376 2203 3200 1774 7243 9467 
4170 1306 2970 5553 1842 3852 6227 3550 5127 
2875 4053 7420 9081 8167 1305 7160 852 9054 
984 1694 3269 7351 841 1418 8176 6168 3159 
687 9844 8168 2078 6698 6032 5136 5367 9455 
6859 2646 4201 9448 1888 5501 4314 8602 9928 
8825 9715 3507 7763 6911 4167 9193 1452 5537 
7987 2705 104 3778 4711 3989 1671 5728 7355 
2089 1312 3003 9409 1411 3793 5541 3610 3971 
9450 2544 3634 5874 7692 8499 6250 6128 8732 
2773 4071 557 7799 3531 907 8746 6344 1568 
3677 1654 5524 368 6584 2822 7769 7337 6889 
3402 9106 17 7139 7591 2111 6300 9185 5757 
3081 1864 8805 5254 1438 1978 8641 5759 3700 
9297 7346 2020 9697 4059 3984 8111 2146 7030 
821 6410 2320 4774 9289 3332 559 8225 6246 
620 3343 7336 1004 2850 241 1029 8564 4608 
3195 2064 471 8889 7956 3622 880 663 3042 
7018 128 9353 9048 3024 5000 5147 8866 5204 
4155 5022 331 1373 9985 5312 9758 6345 5134 
7063 5969 9703 8716 4882 8653 5649 7013 5964 
7092 9168 7081 8213 805 327 3539 6422 9600 
7942 8353 2805 9092 7934 550 8128 3656 7817 
4970 8402 8454 4269 1691 2167 1371 6819 3842 
99 7997 8034 4503 903 9053 9713 1232 8443 
3184 8581 574 4185 9525 2636 5445 1652 4070 
6729 6873 9848 5176 442 9389 1632 5686 3029 
5708 3884 3943 1270 7478 3155 597 8155 1264 
569 8658 1 8991 9693 3753 4274 8434 2791 
1420 3315 4903 8282 8869 8339 7699 3521 6549 
2001 3298 3273 2734 7843 7602 1558 6055 2265 
1757 2335 2422 3888 6563 8010 2264 7847 5151 
8792 354 7758 9077 5504 3613 7666 8913 2740 
5059 1672 8574 7580 3229 2190 1105 1491 3673 
1651 6230 9373 64 4583 8051 3987 6191 2523 
3087 7083 9251 445 8394 2177 2524 3189 7966 
9475 3274 6652 5568 2434 3218 555 5898 3748 
5149 6514 6122 9177 3628 997 8054 3817 8576 
9252 9341 4720 1473 7652 4234 4967 6090 5704 
3196 3346 2271 7639 1690 7210 9144 1679 3043 
9420 5008 9082 9824 9972 1181 2253 454 4415 
9669 6164 6206 7112 8423 8068 2004 2707 8720 
3386 532 3694 8006 132 7612 8240 4335 7253 
9227 6806 5675 7619 8521 2645 8906 7902 4533 
8159 8886 7482 3675 5573 8609 7662 607 6620 
2510 3885 9658 3237 4442 755 8318 9832 5549 
1365 5578 3040 2195 9296 2493 6751 7905 9090 
7716 1090 6798 5318 3714 6619 974 6768 4877 
5797 8352 4527 4221 3478 4662 7916 4168 1816 
2224 8935 1281 8660 1649 9613 868 1184 2746 
8835 9394 3693 2015 1718 1276 6575 2053 6101 
7552 2369 8980 5926 9167 2708 293 9695 8480 
1982 3288 5847 9773 8628 3788 2564 1843 192 
8356 8255 5539 7945 7980 3089 9298 6501 2845 
2625 835 36 4322 6579 9037 3637 8115 9140 
3695 5672 4258 4171 4485 4120 7186 7492 8507 
9542 892 9047 9364 5584 2684 1646 2298 3136 
7214 2332 4169 2832 6898 6759 5557 4470 2921 
9646 2690 9264 8489 5927 8988 2352 1056 7095 
8309 1673 1831 6136 586 363 752 6663 219 
6079 7737 7837 9906 3272 9770 3376 6425 619 
9868 2916 6127 8133 7959 9283 6703 2121 1099 
3453 673 9130 9957 5392 9923 3830 8393 3075 
8520 7244 9980 5334 6040 3354 5994 2478 1549 
6442 4075 2026 2198 7943 817 3329 2034 9917 
879 7082 9478 1297 6640 3566 8651 8863 8917 
5920 9442 3937 5721 268 4894 9584 3914 6505 
5217 492 3465 9400 2291 1170 9125 8090 9003 
5110 6323 7406 9929 3761 1604 9999 929 6877 
8902 3467 2897 4224 2651 1439 4266 7654 3120 
6544 1998 195 4364 6776 6810 9668 8000 4902 
5374 9796 3423 5148 3754 3367 3074 2966 3768 
4354 1589 1455 6825 7507 5430 3093 5690 1173 
4375 7503 8829 2525 1263 8827 6446 5002 8855 
5731 2289 5681 8884 2406 5815 7102 8797 5463 
7484 3393 6120 8836 1737 9021 2144 1387 4261 
2040 3446 6357 303 3458 7059 1159 6904 7294 
8812 1334 3679 8736 2689 335 6868 8491 2779 
1433 7542 7465 7776 1581 2764 1974 4939 7327 
7794 5391 3975 6587 2847 9962 3624 5010 2511 
234 7704 8637 2013 9852 579 5035 1144 5194 
2262 3784 3232 6176 3548 8821 4962 9395 5931 
7562 1746 8329 9015 9935 455 6691 6192 3977 
9691 6986 3062 7508 3257 8943 1296 9339 6926 
5516 6242 4306 5286 3861 8667 5039 9463 1806 
8575 2937 2207 2161 9792 1279 5405 3728 9332 
2752 2621 2838 8387 9183 2410 7481 3031 5047 
3740 5133 6728 306 6169 7004 3918 3710 682 