# vtk DataFile Version 4.2
Generated by LIGGGHTS
ASCII
DATASET POLYDATA
POINTS 21992 float
-0.000499927 -0.0900165 -0.0491714 0.000179779 -0.0847656 -0.0491996 0.00163075 -0.0854133 -0.0491255 
-0.00430166 -0.0702 -0.0489877 -0.00806479 -0.067052 -0.0484634 0.00404753 -0.0616543 -0.049002 
0.00190196 -0.0522337 -0.049107 -0.00402799 -0.0301279 -0.0490023 -0.00348671 -0.0234965 -0.048837 
0.00525139 -0.0182938 -0.0487555 0.00411654 -0.000227615 -0.0489979 0.00646095 0.00422278 -0.0486883 
-0.00697602 0.0130565 -0.0486433 -0.00347128 0.0160869 -0.0490294 0.00494955 0.0171783 -0.0489405 
0.000286187 0.0279637 -0.049126 0.00742467 0.0282482 -0.0485676 -0.00202811 0.0468422 -0.0490984 
0.00167723 0.058039 -0.0491194 0.00589274 0.0603902 -0.048804 -0.00710464 0.0613294 -0.0486198 
-0.00295995 0.0612721 -0.0490546 0.00454728 0.0812165 -0.0489688 -0.0147296 -0.0978928 -0.0458421 
-0.0119541 -0.0989295 -0.0475403 -0.00711177 -0.0981796 -0.0475933 -0.00449966 -0.0990325 -0.0482767 
0.000379464 -0.0981844 -0.0481495 0.00403283 -0.0981484 -0.0479847 0.00890497 -0.0981713 -0.0473288 
-0.00996766 -0.0959758 -0.0471194 -0.00247538 -0.0959323 -0.0480664 0.000371412 -0.0952212 -0.0458971 
0.00636465 -0.0952943 -0.0477097 0.0109013 -0.0951393 -0.0468762 0.0148984 -0.0956674 -0.0457862 
-0.0107523 -0.0924201 -0.0469154 -0.00674532 -0.0926226 -0.0476474 -0.000983319 -0.092617 -0.0481334 
0.00268553 -0.093391 -0.0480426 0.00559755 -0.0922156 -0.0459396 0.00975907 -0.0917036 -0.0471624 
0.0127477 -0.0917604 -0.0474514 -0.0142685 -0.0910247 -0.046017 -0.0114488 -0.0888513 -0.0467465 
-0.00790797 -0.0891768 -0.0474867 -0.00337241 -0.0898764 -0.0480222 0.00138418 -0.0903118 -0.0466121 
0.00732386 -0.089017 -0.0469455 0.0120828 -0.089526 -0.0468679 -0.00533254 -0.0866449 -0.0478648 
8.03904e-05 -0.0872998 -0.0481814 -0.000921591 -0.0886206 -0.0459649 0.00395671 -0.0881435 -0.0479908 
0.00575703 -0.0871654 -0.045901 0.010188 -0.0867654 -0.0470521 0.0138964 -0.0877104 -0.0461371 
0.0164259 -0.0864856 -0.0461858 -0.0130617 -0.0847044 -0.0463355 -0.00912214 -0.0857477 -0.0472943 
-0.00489252 -0.0836613 -0.0458472 -0.0021509 -0.0844202 -0.0480833 0.00322484 -0.0846743 -0.0471944 
0.00673517 -0.085507 -0.0476612 0.0125128 -0.0839735 -0.046482 0.0150732 -0.0846727 -0.0467906 
-0.0108596 -0.0813337 -0.046883 -0.00730081 -0.081558 -0.0475688 0.00100264 -0.0818726 -0.0481301 
0.00564779 -0.0820452 -0.0478219 0.00762349 -0.0833833 -0.0459978 0.00961631 -0.0812717 -0.0471955 
-0.014292 -0.0805377 -0.0460022 -0.00270561 -0.0808234 -0.0480528 0.0136614 -0.0805467 -0.0460187 
-0.0132242 -0.0770534 -0.0462996 -0.0093458 -0.0780362 -0.0472611 1.35145e-05 -0.0783609 -0.0481716 
0.00367936 -0.0782668 -0.0479957 0.00738197 -0.0784032 -0.047554 0.0118174 -0.0773382 -0.046652 
-0.0143792 -0.0735826 -0.0459667 -0.0108609 -0.0734794 -0.0468939 -0.00642034 -0.0758589 -0.0476945 
-0.00279691 -0.0754105 -0.0480505 0.000808634 -0.0747842 -0.048143 0.00558855 -0.0751632 -0.0477917 
0.00920857 -0.0745214 -0.0472787 0.0127724 -0.0737853 -0.0464082 -0.0109098 -0.0710741 -0.0479274 
-0.0057871 -0.0720473 -0.0478011 -0.00214245 -0.0716838 -0.0480767 0.00354915 -0.0721556 -0.0480054 
0.00713337 -0.0714355 -0.0475913 0.0106646 -0.0708436 -0.0469363 -0.0128017 -0.0700926 -0.0464097 
-0.00944147 -0.0690095 -0.0472449 -0.00590409 -0.068414 -0.0477831 0.000911201 -0.0696517 -0.048141 
0.014022 -0.0696449 -0.0461001 -0.0132493 -0.0661186 -0.0463017 -0.00711293 -0.0657855 -0.0481692 
-0.00231168 -0.0679744 -0.0480703 0.00458468 -0.0671041 -0.0479621 0.00832103 -0.0679511 -0.0474185 
0.0117053 -0.0668333 -0.0466674 -0.00967749 -0.0653586 -0.0471817 -0.00459497 -0.0649813 -0.0479542 
-0.000971601 -0.0645959 -0.0481405 0.00252158 -0.0635774 -0.0480553 0.00679001 -0.0642326 -0.0476454 
-0.0133086 -0.0629084 -0.047325 -0.0106753 -0.0612823 -0.0469433 -0.00733717 -0.0625929 -0.0475587 
-0.00224032 -0.0611885 -0.0480829 0.00473707 -0.0616375 -0.0459618 0.00636844 -0.0606113 -0.0477123 
0.0100997 -0.0628429 -0.0470807 0.0127167 -0.0624772 -0.0474726 -0.0127748 -0.0583574 -0.0464116 
-0.00912743 -0.0580133 -0.0472992 -0.00172555 -0.0590119 -0.0460661 0.00243593 -0.0598198 -0.0480632 
0.00929759 -0.0584982 -0.0472747 0.0123902 -0.060219 -0.0460319 0.0168693 -0.0591299 -0.0461553 
-0.00465604 -0.0577294 -0.04796 -0.00102746 -0.0575784 -0.0481328 0.00363961 -0.0554032 -0.0479974 
0.00726906 -0.055436 -0.0475702 0.010047 -0.0560851 -0.0480905 0.0135793 -0.0567842 -0.046192 
-0.0114325 -0.0535229 -0.0467444 -0.00706595 -0.0550337 -0.0476077 -0.00337623 -0.0543236 -0.0480143 
0.000257193 -0.0540423 -0.0481678 0.0113463 -0.0539825 -0.0467702 -0.0135758 -0.0504824 -0.0462093 
-0.010974 -0.0508475 -0.0465199 -0.00838579 -0.0516564 -0.047416 -0.00484351 -0.0509581 -0.0479298 
-0.00228412 -0.0509847 -0.0458817 0.00611015 -0.051443 -0.0477518 0.0094895 -0.0518125 -0.0481904 
-0.0133344 -0.0479792 -0.0473186 -0.00694221 -0.0479969 -0.0476189 -0.00130438 -0.0500576 -0.0481188 
0.00232796 -0.0498614 -0.0480745 0.0100256 -0.0487243 -0.047105 0.0129916 -0.0476635 -0.0474007 
0.0133829 -0.0500295 -0.0462473 -0.0103011 -0.0462955 -0.0470283 -0.00343432 -0.0471081 -0.0480102 
0.00209474 -0.0467491 -0.0459568 0.00509932 -0.0474173 -0.047894 0.00866373 -0.0453271 -0.047371 
0.0122241 -0.0453055 -0.0465306 -0.0135215 -0.044741 -0.0462232 -0.00977363 -0.0425433 -0.0471711 
-0.00657491 -0.0442008 -0.0476746 -0.00305785 -0.0427664 -0.0480363 -0.000200736 -0.0450069 -0.0481757 
0.00377309 -0.043976 -0.0479988 0.00518835 -0.0428243 -0.0461049 -0.0144418 -0.0412327 -0.045944 
-0.00926507 -0.0401298 -0.0483032 0.00123294 -0.0413578 -0.0481261 0.00558747 -0.0408253 -0.0478265 
0.0103013 -0.0420937 -0.0470254 0.0138339 -0.042006 -0.0461319 -0.0145291 -0.0375944 -0.0459192 
-0.0114407 -0.0393343 -0.0467407 -0.00822439 -0.0377758 -0.0474278 -0.00522534 -0.0398523 -0.0478727 
-0.00398394 -0.0381424 -0.0463202 0.000559214 -0.0383343 -0.046222 0.00366799 -0.0377436 -0.0480059 
0.00867139 -0.0388524 -0.0473709 -0.00403762 -0.0361134 -0.0479924 -0.000480137 -0.0353888 -0.0481554 
0.00671187 -0.0357782 -0.047652 0.0107254 -0.0357832 -0.046932 0.0142395 -0.035413 -0.0460069 
-0.0136766 -0.0339934 -0.046182 -0.0100976 -0.0346628 -0.047083 -0.0054812 -0.032766 -0.047842 
0.00294484 -0.0341824 -0.0480467 0.00873412 -0.0327468 -0.0473567 0.0122634 -0.0324059 -0.0465362 
-0.0137819 -0.0303539 -0.0461562 -0.00991719 -0.0302543 -0.0471239 -0.00173377 -0.0317104 -0.0481002 
0.00184017 -0.0305509 -0.0480866 0.00536487 -0.0314725 -0.0478599 -0.00647045 -0.0291997 -0.0476888 
-0.00108425 -0.0281347 -0.048133 0.00155635 -0.0291161 -0.0459033 0.00710674 -0.0280315 -0.0475936 
0.0104942 -0.0292593 -0.0469835 0.00974171 -0.0270909 -0.0482293 -0.0119659 -0.027012 -0.0466159 
-0.00995946 -0.0246126 -0.0470757 -0.00723966 -0.0264024 -0.0471858 -0.00471686 -0.0260071 -0.0479481 
-0.000247282 -0.0244862 -0.0481725 0.0024968 -0.0268708 -0.0480598 0.00904126 -0.0247508 -0.0473133 
0.0127252 -0.0263168 -0.0464308 -0.0137317 -0.0238683 -0.0461862 -0.00882682 -0.0243179 -0.0483688 
0.00499961 -0.0243093 -0.0474123 0.0114185 -0.0220632 -0.0467615 0.0147125 -0.0233233 -0.0458475 
-0.0141714 -0.0202494 -0.0460448 -0.0107956 -0.0218154 -0.046911 -0.0063123 -0.0214489 -0.0477129 
-0.00193789 -0.0211148 -0.0480884 0.0011241 -0.0214823 -0.0461613 0.0041985 -0.0208067 -0.047977 
0.00776321 -0.0213529 -0.0475043 -0.0129637 -0.0168359 -0.0463655 -0.0104429 -0.0173664 -0.0458976 
-0.00876352 -0.0187472 -0.0473529 -0.00295643 -0.0176226 -0.0480441 -0.00176299 -0.019012 -0.0461716 
0.00312453 -0.0176827 -0.0464643 0.0101632 -0.0186527 -0.0470603 0.0136686 -0.0192088 -0.0461829 
-0.00983072 -0.0151566 -0.0471498 -0.00627371 -0.0156602 -0.0477184 0.00136645 -0.0149589 -0.0481157 
0.00568064 -0.01548 -0.0478117 0.00932671 -0.015116 -0.0472642 -0.0128055 -0.0132037 -0.0464078 
-0.00745283 -0.0121825 -0.0475481 -0.00384621 -0.0117628 -0.0479909 -0.0015369 -0.014025 -0.0461391 
0.00387441 -0.0123271 -0.0479921 0.0124614 -0.0134297 -0.0464731 -0.00973449 -0.00934061 -0.0471726 
-0.000169405 -0.0102778 -0.0481759 0.0071106 -0.0106735 -0.0475202 0.011155 -0.00955685 -0.0468185 
-0.0133471 -0.0087615 -0.0462664 -0.00615486 -0.00857278 -0.0477422 -0.00258089 -0.00755956 -0.0480581 
0.00343903 -0.00871687 -0.0480237 0.00835319 -0.007058 -0.0474072 -0.0119054 -0.00540099 -0.0466301 
-0.00836837 -0.00570832 -0.0474077 -0.00489513 -0.00476437 -0.0479316 0.00103115 -0.00579328 -0.0481255 
0.00525965 -0.00519882 -0.0478673 0.0119549 -0.006022 -0.0466263 -0.0123002 -0.00171071 -0.046526 
-0.00871337 -0.00206172 -0.0473543 -0.00126973 -0.00297131 -0.0481252 0.00283246 -0.00249534 -0.0480477 
0.00695269 -0.00165198 -0.0476217 0.010468 -0.00239044 -0.0469861 -0.00506832 -0.00113275 -0.0478982 
-0.00151855 0.00065733 -0.0481193 0.0121122 0.000915802 -0.0465826 -0.0144372 0.00234849 -0.0459056 
-0.0109997 0.00167172 -0.0468589 -0.0074275 0.00161321 -0.0475437 -0.00416518 0.00316152 -0.0479761 
0.00206137 0.00128755 -0.0480788 0.00565984 0.00174525 -0.04781 0.00914534 0.00295561 -0.0471259 
-0.0128931 0.00568918 -0.0463945 -0.00919124 0.00482109 -0.04729 0.000347598 0.00473459 -0.0481623 
0.013007 0.00550303 -0.046336 -0.0130199 0.00875259 -0.0473973 -0.0103931 0.00825938 -0.0470123 
-0.00671907 0.00746456 -0.0476505 -0.00161706 0.00802687 -0.0462145 -0.00284582 0.0066039 -0.0480399 
0.00247059 0.00784863 -0.048062 0.00597413 0.00689595 -0.0477649 0.00958211 0.00656339 -0.0472092 
-0.014368 0.0107638 -0.0459662 -0.00790668 0.0109011 -0.0474798 -0.00432718 0.0103649 -0.0479683 
-0.000736786 0.00956607 -0.0481423 0.00506514 0.0104024 -0.0478966 0.00865865 0.0100809 -0.0473594 
0.0131582 0.00992471 -0.0463177 -0.0111679 0.0123603 -0.0468127 -0.00462466 0.0139922 -0.0479504 
-0.00101247 0.0127151 -0.0462397 0.00209624 0.0124872 -0.0480876 0.00698974 0.0136757 -0.0476114 
0.0109175 0.0128952 -0.0468896 -0.0140931 0.0143897 -0.0460786 -0.00838553 0.0148862 -0.0474038 
[...]
POINT_DATA 21992
FIELD FieldData 6
id 1 21992 int
13769 18350 10623 19093 19642 13657 18708 19517 9812 
10207 13561 10912 17028 19732 14681 11076 12865 12144 
19214 14098 16072 15777 13327 7007 16911 158 11932 
7693 5378 7392 6150 472 7252 3402 6805 5558 
1567 1682 7050 1873 7576 4605 14001 7303 7466 
7483 4573 5953 6975 15595 4447 930 20656 5320 
16672 5294 1317 9934 4012 2593 3461 4550 7261 
3051 4697 16452 7762 7204 67 3169 18176 6237 
6290 7433 1432 7719 5477 6680 663 5691 3206 
1128 3330 6301 1997 2114 7590 4491 1586 14367 
2310 7464 2649 6318 6544 6317 2439 7764 701 
1000 5242 17075 498 1413 7578 2394 2802 2883 
1970 5004 3034 17155 3048 4531 65 15773 4690 
1943 21483 6111 5485 20672 4769 283 3343 10700 
4762 4444 2288 1758 17842 5323 5949 1292 4450 
3312 2383 6209 17867 5841 4104 14195 7308 11060 
19529 6 203 4747 7654 14261 4437 2 2427 
2032 7358 4020 2765 6704 2736 6477 3097 5097 
924 20723 2210 21775 1444 816 7223 4350 6600 
657 2944 993 13906 5126 4190 4041 5428 777 
6147 934 108 601 4477 2026 4513 1977 7206 
885 2446 4951 6679 3290 1303 5365 14134 4442 
2968 14080 3606 13052 12599 3814 4492 6962 50 
2712 169 14886 139 4192 2180 5973 5 1694 
440 2793 1729 1291 3198 14657 1205 450 17158 
909 3555 1435 928 2542 1281 6434 6640 5529 
6105 6751 6834 4850 6579 6403 3151 5545 2134 
1615 714 4282 2951 5992 6812 5775 2602 226 
2430 302 4166 1 5591 711 6582 7378 2217 
5828 6796 4107 7188 1723 1913 1421 4988 6190 
4414 2603 1203 4719 19186 1059 3340 10949 5960 
1486 456 1405 870 7552 6694 7120 85 3211 
3237 1746 6522 2195 2834 2900 1697 6402 5539 
6624 6033 6328 4262 4138 2290 1417 4631 687 
6389 2476 3804 3571 5118 3553 5664 1502 1910 
18115 18670 712 20654 18104 1314 5823 5367 7166 
7560 7585 1848 5594 2051 4561 2202 5023 3677 
6703 4149 4162 1422 1025 950 18925 249 3136 
6055 4294 17900 7458 4941 891 2381 11104 6599 
2199 6712 2101 2120 762 6263 5197 6855 726 
1690 6218 3656 2075 5820 4120 20648 4624 3341 
6500 8760 4524 630 253 6235 2509 7152 4589 
5000 17568 4674 5866 3143 18149 443 2442 900 
5339 8 5931 4943 1366 9 4500 6116 4250 
465 5329 3094 6884 990 18970 3727 5445 5177 
2047 3774 7351 6557 16073 4874 1591 588 5802 
6363 15216 9444 7167 7735 4386 6406 6257 6482 
7468 5005 2428 488 4009 5111 5673 433 2226 
920 7414 7386 2221 5226 4486 5062 2807 3113 
7564 7001 4772 7639 5443 5937 995 6283 6519 
6738 54 935 4059 3489 6142 19595 5707 6198 
5406 2981 3581 1726 4616 3984 7702 620 1903 
1003 7044 7575 4435 4948 4046 152 7343 5222 
5115 638 5753 7210 1929 2584 4050 4495 3394 
888 6707 3925 3905 4317 374 3366 3004 6225 
2299 645 6378 2938 5900 2550 7673 5871 2578 
4723 17223 2828 4031 4698 5139 3845 4994 2179 
7322 3158 1271 5720 3242 4782 3231 8222 2803 
4316 5951 15240 14288 6567 6064 7425 1336 1086 
3544 5595 7705 9623 6541 7874 1074 4438 1280 
6958 2137 4507 1760 16286 6013 5788 531 581 
4204 6863 624 6662 3088 1854 1199 7292 14760 
1458 370 7655 5801 7202 1861 6886 3765 11951 
3205 2163 9214 7424 276 3641 7346 3052 6034 
2362 2779 5624 7074 49 5500 2273 1491 7026 
6826 4311 1829 13338 13358 2996 820 7710 6450 
311 20891 5623 2930 2472 751 265 178 2501 
8126 5471 6131 21060 182 1698 1816 6171 6335 
689 6000 7597 1186 2850 756 3177 6901 4612 
2018 2254 3081 3663 2149 6857 418 5576 1302 
3670 5983 427 5218 7669 6591 8823 15754 2774 
2452 12014 3126 4659 9728 125 5419 4472 3455 
7183 2349 1820 1391 4392 2239 5605 6841 3605 
1900 6143 4722 3945 10291 4998 17671 7326 6732 
10430 8744 3574 7581 260 7738 9008 4130 18030 
5144 4934 7700 10128 1637 6629 8741 18939 19759 
13908 5514 4133 6460 4279 1670 7525 6913 4622 
2904 337 1750 4042 9182 7342 11584 2714 3642 
1645 2831 1327 2377 4327 4914 6609 5080 4153 
7339 121 3885 553 904 2693 4412 2729 4594 
7163 6592 4572 6528 6664 5751 4467 17233 3864 
6929 4826 3517 1932 388 3181 4355 850 8519 
1979 2280 2048 4734 3948 3806 1076 1908 420 
5210 4281 6726 6289 2994 3962 5170 7103 3331 
11470 522 6919 3510 1488 6277 2848 3586 6627 
3842 1540 3600 5148 3115 5566 5388 18509 3976 
7572 20479 20018 789 6331 797 4583 1324 7406 
2223 6998 7761 6641 5493 5660 17452 6916 442 
18 3055 4053 4049 77 2820 15162 3390 4283 
20 5302 191 2236 4581 7606 1454 1014 56 
11084 7419 6132 1463 6424 14703 4328 3153 1347 
927 16612 6282 17692 2185 6911 7273 2390 1948 
2089 7670 3328 6284 2399 1440 6404 2721 5085 
3815 6613 3387 473 1534 2579 4663 7412 2940 
3464 2096 6415 5637 6358 4688 1817 2619 159 
2672 3062 93 3485 12277 2577 7032 6692 5230 
2824 5916 2455 19065 5247 8488 810 1849 4910 
17163 6548 19179 4977 1668 21585 7319 3110 5731 
7073 2281 7608 19260 4060 5399 7056 1477 533 
5857 11144 391 8889 409 4072 2465 2527 754 
6427 124 2675 7724 40 846 3253 2646 1012 
7070 10080 219 4578 19926 1622 7674 6325 5600 
6050 6814 16921 3810 6292 5571 4903 2541 5772 
7350 19077 11351 1414 7598 16716 1601 962 1823 
4339 6057 110 6454 21146 14466 4245 668 4786 
11188 20034 6066 3971 4685 204 7126 3831 5570 
1129 13329 5338 7380 3350 1987 2838 7248 5550 
4755 3580 10752 4360 1642 2856 5752 14994 7687 
4564 892 2225 3572 17093 1399 1994 1519 4273 
1898 7506 15418 75 4402 20143 3558 256 7579 
7682 16448 3256 1004 4480 242 2916 12110 1876 
1200 11113 6740 4615 3030 7327 6737 814 530 
7394 2167 7545 501 6967 6330 5371 6233 6973 
5348 5982 1409 7582 5861 5821 21890 7964 3724 
1239 16683 6819 3742 5389 5862 504 7364 1287 
4655 5120 1862 3785 293 500 7118 2553 4305 
2751 9888 407 6700 578 2833 5849 5808 1351 
4425 6938 2711 5166 7022 5856 5025 1131 5397 
6684 595 4428 4123 4342 1445 2030 539 5764 
4299 5194 3109 1419 6673 14271 2448 2680 16886 
1912 3584 7217 1305 482 2216 3302 2408 883 
4459 3523 5475 1655 7713 3348 2709 2330 7780 
1184 4862 3384 7139 4993 6574 4621 69 7129 
6306 5283 1362 6606 4499 5236 3921 6127 2772 
4535 5205 7265 5674 1041 2656 1633 796 4743 
7181 1558 3708 9309 2882 4638 2307 3346 661 
639 5495 4946 1010 7219 4482 6889 7028 6575 
2784 5263 6307 21895 11927 3577 6130 4630 5993 
1858 1257 5400 5649 4466 2538 1482 18815 5978 
5461 7186 5291 7382 9432 10337 19296 2788 4950 
18468 8451 7023 4959 4590 4636 4666 6245 15438 
7588 4038 14608 1946 17473 6032 5303 17360 3950 
5383 1867 7959 4228 10445 4654 6259 12935 1888 
7465 549 4895 18051 3382 15635 8742 9627 9932 
592 51 5519 4662 21075 5420 8719 5989 5936 
4753 19949 7355 534 2318 7237 3170 20001 5318 
3798 9079 6093 8028 3578 18682 7451 3705 3003 
1922 4113 165 300 19804 14376 2610 4271 724 
2491 14239 5853 4851 7990 11800 6769 4287 7242 
2305 5628 4079 1211 15828 643 5307 6521 6535 
5706 5240 16858 4889 2999 3245 18212 1855 1148 
542 7457 9976 9170 20420 7174 11641 8548 1717 
4872 7604 4487 3755 16259 1525 2750 571 20862 
1088 3281 4979 5800 21575 12785 2231 4000 5498 
4805 3594 9051 560 437 4182 7417 4102 5333 
321 21183 5939 15964 16112 9660 1628 5858 6071 
4377 6215 79 4503 7919 20765 7529 18380 1396 
4011 7381 4184 2819 367 1919 21210 7743 18274 
14495 6757 16585 21354 21917 13112 8319 6847 17308 
6964 2666 2270 14632 11897 12707 18144 20304 6442 
102 11780 2764 5497 6708 2426 4834 13573 4650 
2397 416 3053 3791 14775 3226 5997 275 19226 
4886 4352 15089 2907 829 15903 8552 1988 4519 
1181 6789 3365 580 4116 5914 1356 808 5573 
2953 4163 3345 5204 3457 36 6399 740 10235 
8167 14840 3904 1197 20192 7699 14921 2910 3415 
5991 14478 4122 6136 12881 5179 3315 7401 3759 
88 1678 6240 7782 10726 16222 214 2933 18406 
5192 5311 5994 3869 421 16476 3715 12717 228 
126 2932 2639 3408 7652 9363 21162 11069 14047 
4055 16049 18220 7178 2745 963 5432 623 1373 
7132 18044 6086 1789 7936 7447 5298 8393 192 
13104 5068 907 5134 6345 3125 2872 480 98 
7548 5458 5421 19265 4227 2547 5615 6005 7926 
346 7391 122 4398 2062 3434 20247 6096 4901 
5304 3996 2676 8466 16857 17369 2886 13190 10490 
3652 3672 4644 1600 4744 1680 194 4915 6364 
5306 4370 3449 5602 1423 1040 2532 13939 5520 
1761 15394 1112 17667 4401 2098 3795 2551 865 
16108 270 6837 2327 5697 8340 5975 3465 1940 
17304 7489 921 9647 2684 5021 3924 7603 7352 
2659 21036 7540 4464 10434 7694 3693 474 3698 
6643 4200 6451 2029 1577 743 985 20760 8717 
1247 6337 267 5355 2756 349 11444 9366 5929 
18203 3483 2982 6685 162 670 13454 20884 5408 
890 2959 1322 19698 5946 17712 5161 233 2733 
2965 5717 4556 858 3404 6461 1523 10862 10520 
146 8188 17562 1249 8079 1603 1459 3121 20397 
5661 2647 4923 6792 4493 5460 18460 5569 4488 
17406 19373 2920 3719 3543 8048 3666 4005 2435 
4078 16243 1096 18946 590 1886 7596 4599 2694 
3620 13398 4391 13876 14839 21280 2945 14280 181 
21335 405 3021 2234 3257 605 7766 6417 15525 
4145 6638 10174 6177 3709 6217 983 2115 20897 
4068 20386 1206 6963 4882 17557 5947 2402 1434 
11937 6047 4836 15916 20984 1236 14691 18960 5169 
6113 6840 7477 3722 1178 872 2418 5101 3377 
4799 6510 18239 3435 5266 17073 3894 8276 3781 
315 4608 10615 3608 7562 14534 6178 6815 9169 
2016 1393 5377 11332 17622 16939 798 11959 7340 
17758 6084 5984 15921 10953 2406 3855 19881 2132 
3527 18581 4293 3610 10922 6087 5676 6321 977 
4080 6053 15251 20216 3969 14664 2653 4363 2457 
6713 1009 5904 3075 20567 12676 9227 7035 4436 
2129 16206 17166 4969 1465 1609 16402 6396 6470 
5201 3636 4791 7317 4251 18720 10247 99 15373 
2884 7635 6211 2718 20907 5831 6472 6281 941 
3327 10643 4913 7341 6569 4230 7443 6124 6007 
855 163 5921 660 1907 9142 1693 5971 334 
17254 21052 5704 7338 5665 4798 274 5843 5185 
1268 2366 8367 9566 2852 811 19 1730 5319 
695 5742 12602 12983 5436 19370 17719 1793 1978 
5352 4075 399 10488 4707 6621 15125 6768 770 
14067 6646 6525 2761 154 4374 2724 3060 2193 
1116 7513 7526 7607 5941 11822 3564 15605 236 
6315 1721 7442 3360 4423 13246 18993 4924 2841 
6705 971 550 4108 4253 3680 6414 4139 1381 
5401 6468 591 7205 5765 2707 4815 2800 5442 
8779 13566 3258 973 3289 4121 5689 6279 7239 
4857 5381 2943 5727 3721 6969 6689 10003 3896 
21442 7011 3766 6497 7773 7644 2002 5954 7253 
247 1142 4418 1130 5171 5980 5710 11761 3072 
1256 4275 5353 2220 1471 8890 2631 7295 11976 
15441 7046 2024 5402 7179 2025 4214 5250 19039 
7507 6425 11523 310 2160 2976 7154 6610 3067 
4885 1058 4371 18757 2558 21149 9261 11857 15138 
1261 2544 20591 6736 6810 15458 968 12634 1870 
14462 2598 153 2911 8777 2510 5629 9927 1449 
13002 2836 21580 2875 13727 12269 7472 4802 5490 
4240 7224 14102 2356 6029 19792 20552 18552 9316 
8201 20529 5076 1442 4935 14254 6398 5452 3172 
5136 15647 18753 2511 15675 819 5606 20050 16764 
2823 10559 4637 1834 765 6305 3371 16743 3612 
8368 9435 20458 14609 7753 17697 3041 5269 952 
5030 3221 3354 7234 20434 15764 20598 17699 6222 
14687 8192 4906 17280 11682 6224 6760 3216 12091 
2492 10785 16427 20494 2337 7072 19551 1736 3856 
7165 4820 15286 5232 7190 3059 5618 2627 13956 
15332 6924 7104 5271 19027 6170 13087 10823 3934 
3792 13594 21462 15902 18177 16826 12187 708 4968 
3166 3649 5199 7541 2874 7437 12403 20230 696 
11850 7123 8980 19858 2851 8118 3913 1930 11114 
12446 15217 12324 14519 12533 1897 1329 19445 8191 
15858 377 3552 21522 2365 15994 3437 3042 610 
4845 1798 3665 4151 16456 14411 7870 13098 1306 
10992 10227 1991 4203 7169 17501 107 15309 20267 
21360 775 14659 6212 5878 20630 11122 13196 18964 
4089 715 12577 2935 3907 6015 9348 9295 9139 
1103 8845 11448 20523 13365 2633 16704 5293 6563 
4380 4233 3117 6925 20775 13389 2913 7860 12578 
9980 1279 11944 17463 2133 1378 6900 7119 6915 
6630 2315 3228 16009 4112 6731 17722 12545 4169 
9047 20226 16454 739 20677 18039 18264 1744 3565 
4789 12109 10103 10292 19899 6001 15700 11495 12182 
4211 5696 17337 20384 17263 19258 12755 5276 10979 
13435 3587 12256 3695 631 4015 5908 3983 19267 
583 1250 6098 2458 14953 7441 10489 4261 15651 
17930 4296 18298 16042 795 7307 15586 15256 6189 
10319 20764 19855 10799 9193 17435 9519 16451 10040 
15399 20898 13894 9003 942 8338 1192 4855 6192 
5693 171 7264 5897 6876 13710 8824 18480 19235 
14811 6739 13185 18284 2022 15818 20159 4448 2768 
11246 6244 2487 15639 7684 2039 13568 13623 21642 
17978 16300 1757 8569 13558 8493 4975 2569 2865 
9683 15503 21869 18905 1692 3022 2242 2722 7268 
7954 3251 10301 3338 5060 3773 8263 8498 16947 
17218 14877 2146 2122 104 3603 7706 2190 21808 
6903 2020 10612 3967 1665 20551 7235 227 7042 
5943 3268 15907 17820 18944 16629 5844 986 11282 
17570 12763 2454 14680 13535 20183 308 3236 1264 
2380 2086 17713 8506 3534 3850 9965 20709 20690 
177 3846 1068 576 2176 1182 5779 17552 5156 
18634 5128 9872 8927 17438 8119 12788 2266 8336 
8799 8746 1415 20502 12178 15699 11930 18605 12431 
9635 15007 5093 13019 6021 4265 4229 655 21758 
17702 21834 16991 19736 17081 18658 19978 14709 20207 
5234 15725 371 5396 13038 16905 3160 2342 3091 
16138 3212 18178 17278 16261 1713 9655 17191 3968 
3786 16754 13235 3395 6164 19469 3525 21687 8521 
9607 18699 3460 1283 5596 17005 2158 9160 7272 
5018 12768 5001 15460 5948 640 13531 5100 12038 
938 8649 5698 2449 18289 4822 18893 15461 13819 
292 329 14551 4001 4966 2961 6260 6333 4221 
9350 1248 12140 14992 8246 17679 15955 20953 10550 
20912 2484 5656 8144 220 15775 255 14203 6044 
18213 5733 17018 6374 2720 12085 15912 21772 10484 
454 3358 5173 2710 7436 342 4458 18090 15742 
972 4854 19433 1054 3567 1553 5203 3972 12626 
14781 5981 14293 11399 343 4454 5404 6688 5547 
1675 19332 2921 1023 9710 3163 4306 3736 9784 
2993 6018 2471 1589 19936 4086 13276 1187 5670 
21577 9956 20808 1286 7749 239 5289 14489 16030 
2530 1879 1133 18799 16982 11781 15294 7993 5195 
832 71 2277 3579 3016 15934 7676 8759 14100 
17408 19532 3333 13083 14802 18770 18084 15478 13686 
5055 5241 14956 7531 3329 7671 5219 17822 14173 
20659 5969 15052 15969 16185 11018 5879 20144 373 
8855 3096 3362 19446 4800 2469 20140 6872 15451 
17193 2866 10136 15144 21038 1285 2581 5273 7061 
344 5374 10574 7232 161 16466 17764 720 9498 
11349 21084 16755 2359 12147 4808 621 3733 1512 
10238 9913 7594 16931 17800 18311 14319 17695 318 
2776 3830 2164 6593 2425 1754 15416 20314 6463 
17041 3771 1026 21128 1714 6896 6381 864 18855 
2526 20412 10161 16376 16518 14885 12975 1513 4070 
2105 1090 1295 14916 10139 17607 7621 3367 12848 
4929 7511 13742 5956 19565 7730 5552 7807 4176 
13533 7354 12814 9026 15963 5688 21742 12835 20027 
1797 2245 17665 2302 11712 9909 6785 5176 13221 
13720 18109 14412 3757 20090 21650 5474 6347 1535 
17989 3392 2391 5187 11019 18209 14226 15644 3504 
18141 5394 3147 929 6921 1611 6258 1353 1389 
1082 7260 2576 5104 10688 1942 1521 7503 6121 
4828 6193 6199 19455 15846 21042 10407 7546 17566 
4118 17201 14925 4469 5165 2912 109 20769 2608 
19028 19354 15077 19955 7164 13283 20217 16696 11962 
976 12837 8422 9055 562 5465 5634 6180 9097 
6410 13779 7284 21560 9928 20821 7557 10060 3155 
16083 21045 5636 21846 16520 9813 4422 6655 887 
3782 6801 2447 4255 19908 10783 6589 11173 6357 
6459 21091 5987 7517 137 21570 2385 1906 4101 
5439 22000 16004 4954 9499 19708 6698 6690 232 
3452 650 6109 18202 7373 21778 15285 16687 1039 
21711 4146 552 2470 13758 12241 6761 7376 4002 
5135 4063 1382 21025 11154 20777 16 21274 17997 
20315 8497 4706 2403 10857 21850 910 11525 5531 
3374 11118 2084 16926 4100 6506 694 656 7027 
8481 17920 4562 4721 2519 19494 1209 21515 19971 
4778 17352 12576 18361 15832 8382 4585 143 9270 
350 3682 3920 13220 20301 19189 20235 198 19615 
20097 8164 19162 13078 5738 3189 5290 7387 4904 
7792 4465 10907 9124 14266 8728 5749 1739 19014 
16962 21658 1089 4861 3599 12045 1407 4540 1842 
7605 4660 16892 6893 6426 3615 4960 5125 131 
3741 6620 20867 828 3822 1889 1990 7430 5655 
1215 18353 6076 290 8262 7502 5887 17066 5027 
6160 1102 1891 1478 5880 19342 6566 3378 4687 
3120 6868 5258 20971 2757 6523 14491 709 7675 
1447 949 5282 2462 884 291 11705 19841 5759 
1947 3720 2849 1126 4517 27 7640 3639 5824 
2205 7244 18337 5059 7209 4980 5633 999 5865 
10934 2319 3974 6385 5885 6448 2005 7534 5255 
5714 17825 2400 6804 6187 2480 2992 5220 2815 
20080 636 18226 6091 400 527 20903 19538 17202 
14797 21352 11650 6935 5773 7732 3684 11304 20673 
18739 18816 6380 21205 9652 18134 3537 8287 2681 
3065 4022 3190 839 4295 17814 16239 8802 992 
17694 4871 3751 21592 19807 18674 4168 4270 19998 
8328 20276 6706 21945 8145 8137 21034 3453 4157 
17802 14871 6672 16678 13699 1796 4029 18184 2855 
4676 8507 5583 12389 16787 21535 20356 18926 17409 
5850 20271 13869 9603 16628 12643 17213 19099 431 
4048 3524 18924 1704 8396 16573 7577 20059 17301 
15139 17725 15126 6106 19583 3551 16735 7681 7857 
4876 15905 7375 42 3272 19277 12474 20536 9212 
2887 16504 6122 13960 10237 11095 13383 4097 1109 
5292 483 6568 19874 3099 21481 18391 18273 10427 
20242 7262 17341 18952 16344 15140 21851 11890 18182 
8043 10389 8426 12190 20131 6622 8194 11720 2990 
21631 18692 4456 5579 3165 7739 16532 825 18850 
15833 10449 3007 7797 13878 17955 8962 8722 5157 
3477 199 3105 2368 6421 19895 7482 13648 4301 
7736 17204 21348 18303 19657 18854 10663 13066 8708 
8513 20074 21237 9376 20691 15335 15543 21905 10011 
11508 9924 5350 704 5608 4424 4171 4403 3888 
20206 18313 16805 19171 2172 14960 18343 20116 9577 
13336 21141 11630 10288 10044 13716 21283 2243 15365 
14588 17178 7304 1333 4103 15282 8989 4150 10561 
14518 16908 12035 183 18665 9839 16343 12500 2166 
11225 14115 12600 1644 21932 10501 18981 12352 2268 
11819 13689 1738 5431 6882 413 3089 5254 5441 
15992 11667 17359 15044 16657 8084 21412 15033 9426 
21604 15035 16446 14847 12712 19347 18080 3440 21029 
7225 362 9502 16221 134 17954 9830 19789 9457 
20045 21390 21680 19262 13158 10182 10256 11657 20868 
12456 5669 21923 8406 14242 9674 11812 16118 14572 
8547 8113 1213 5287 62 1117 4034 1702 18307 
1332 9548 7316 10540 19859 5178 10486 12917 1188 
8296 17271 19346 14568 278 17795 7836 20532 14368 
2557 12434 15316 3219 5970 3557 21115 7744 18613 
15718 16037 12974 12096 20571 20774 9338 2209 17126 
13738 19341 20052 18671 21499 12945 18302 13231 5482 
4109 1716 6271 5409 12764 4632 20449 16496 9400 
13278 17924 10441 17969 3467 1017 18348 7835 11416 
18928 10929 20461 12171 20094 19107 5121 3981 14145 
426 15368 2760 2161 8106 12193 10966 8516 11858 
10640 2049 21178 10664 18425 16265 20364 8293 17173 
9035 4074 13577 2885 12177 2434 3808 1687 11242 
18096 966 4852 10171 13776 8358 19973 7661 9685 
19644 15160 15312 1871 19791 10087 18117 7302 1244 
6503 1273 21662 15198 21139 3187 12436 8667 15343 
12506 15819 5364 18685 15107 17261 10426 14682 13818 
20663 9080 17265 3753 16979 5305 6100 3442 16658 
2909 2595 633 13299 12605 3439 17389 13548 14302 
20391 21500 20573 20055 17936 19790 19357 11426 14922 
2799 1392 20194 14708 13247 4646 8320 16375 10933 
21766 13842 19892 8441 1228 7214 13183 1794 8603 
9803 2147 4804 3535 1853 419 12636 11293 9100 
2328 10633 14593 13244 10072 13113 15611 16978 9356 
17908 1312 20239 7102 4780 7395 4033 19016 4709 
10293 14291 3304 9661 21290 14420 21192 3918 9534 
18173 17270 14899 6942 10662 8876 11052 6123 20666 
20565 18677 15836 9688 17362 2373 11845 2663 5275 
1594 1524 15471 14548 8652 16218 9581 10206 10311 
17489 13934 13571 19274 8049 20745 7989 8992 11393 
17379 15695 19654 8932 5709 13179 5221 1307 9901 
4930 14859 21208 5476 72 19042 11083 8617 15889 
13277 21189 9960 15123 21057 16894 20614 8447 11472 
1719 17888 18267 1856 4321 5898 8772 295 15106 
12005 18872 17087 9243 14305 15811 17230 20323 17629 
10967 20266 15003 16373 21724 15215 21635 11471 8704 
1095 13449 19400 4085 1971 2421 4195 2738 8631 
510 8318 17921 3582 11563 17298 10554 19515 11475 
18292 12013 16552 11592 10753 21024 13843 16106 21771 
207 19104 20759 12950 13724 3533 1386 2139 15479 
269 18270 288 12468 14961 3838 20263 12568 8814 
19293 12153 4198 6432 8279 11627 11295 10320 15466 
7115 6696 3283 1018 48 7708 20869 12407 10741 
21257 18868 12076 5369 8291 2042 9897 21464 17495 
14520 8826 17211 14400 13762 7002 9998 4207 5393 
1420 12872 1552 1728 12686 10141 18305 19379 485 
15301 3209 15711 13945 20095 26 10400 4579 8240 
16492 511 14241 19864 20890 7677 9765 9418 8572 
3441 14862 11974 16151 12688 18354 18545 15876 19180 
4 3481 7177 336 5748 17654 10962 14432 8492 
13380 12817 12773 1056 19414 11834 11939 12920 17524 