# vtk DataFile Version 4.2
Generated by LIGGGHTS
ASCII
DATASET POLYDATA
POINTS 10000 float
-0.00630403 0.00090973 -0.0406158 -0.00452602 0.000897245 -0.0408583 -0.00273489 0.000910111 -0.0410088 
-0.00093854 0.000895579 -0.0410898 0.000859443 0.0008942 -0.0410984 -0.00630963 0.00271879 -0.0406179 
-0.000676169 0.00267161 -0.041102 -0.00284633 0.00284559 -0.0410011 0.000639253 0.00397712 -0.0410989 
0.00249521 0.00400624 -0.041028 -0.00422295 0.00407364 -0.04089 -0.00264365 0.00492648 -0.0409422 
-0.000856249 0.00497186 -0.0410933 -0.0054279 0.00539887 -0.0407436 0.00143472 0.00559901 -0.0410774 
-0.0038731 0.00647945 -0.0409245 -0.00190406 0.00655794 -0.041058 -8.96198e-05 0.00659643 -0.041104 
0.00242268 0.00711369 -0.0410364 -0.00591465 0.00762478 -0.0406719 -0.00446101 0.00867548 -0.0408682 
-0.00118414 0.00834346 -0.0410819 0.000910725 0.00808917 -0.0410925 -0.00618018 0.00948847 -0.0406331 
-0.0024599 0.00961805 -0.041031 0.000423984 0.00982131 -0.0410976 -0.00468277 0.0104616 -0.0408352 
0.00227238 0.0104653 -0.0410467 -0.00572403 0.0123487 -0.0407013 -0.00207246 0.0114413 -0.0410492 
-0.000279194 0.0115806 -0.0411038 -0.00326255 0.0127894 -0.0409793 -0.00127972 0.0132832 -0.0410849 
0.000816728 0.0130043 -0.0410936 0.00258615 0.0133201 -0.041018 -0.00662464 0.0139245 -0.0405688 
-0.00335323 0.014612 -0.0409688 -4.80785e-05 0.0145846 -0.0411088 -0.00574709 0.0154827 -0.0407048 
-0.00169495 0.0152889 -0.0410651 0.00110452 0.0159582 -0.0410882 0.00272302 0.0151769 -0.0410106 
-0.00412752 0.016229 -0.0408944 -0.00247115 0.0169033 -0.0410341 -0.000541829 0.0166593 -0.0408982 
-0.00561509 0.017292 -0.0407175 -0.0039842 0.0180183 -0.0409109 -0.00100706 0.0183872 -0.0410869 
0.00157996 0.0176893 -0.0410707 -0.00531941 0.0192056 -0.0407572 -0.00261294 0.0192054 -0.0410268 
0.000604073 0.019201 -0.0410957 0.00254374 0.0192034 -0.0410235 -0.0119929 0.000894207 -0.039321 
-0.0080698 0.00096726 -0.0403085 0.00254825 0.000905565 -0.0404808 0.00430088 0.000896149 -0.0408799 
0.00666962 0.000898844 -0.0405598 0.00908821 0.000902494 -0.0400825 -0.00976375 0.00243651 -0.0399271 
-0.0044093 0.00249885 -0.0400514 0.00160873 0.00247757 -0.040723 0.00337996 0.00243561 -0.0409661 
0.00548354 0.00224071 -0.040734 0.00722396 0.00260562 -0.0404642 -0.00806846 0.00290427 -0.0402995 
-0.00546706 0.00401461 -0.0395995 -0.00153381 0.00370199 -0.039909 0.00515847 0.00400884 -0.0407836 
-0.0117983 0.00445573 -0.0393704 -0.00931373 0.00417334 -0.0400318 -0.00694508 0.00446588 -0.0405159 
0.0087377 0.00465978 -0.0401596 -0.00952 0.00595811 -0.0399916 -0.00801474 0.00525508 -0.0393134 
-0.0071318 0.00630868 -0.0404778 0.00335654 0.00558161 -0.0409686 0.00623218 0.00543964 -0.0406296 
0.00821201 0.00640323 -0.0402723 -0.0119 0.00666416 -0.0393429 -0.00851204 0.00742972 -0.0402103 
-0.00435273 0.00745259 -0.0395001 0.00119271 0.00681118 -0.0397739 0.00484378 0.0065773 -0.0408162 
0.00666277 0.00727696 -0.0405576 -0.010628 0.00788546 -0.0397021 -0.00288534 0.00792919 -0.0404368 
-0.00014079 0.00800023 -0.0396399 0.00366145 0.00764451 -0.0398532 0.00513236 0.00834923 -0.0407849 
-0.0119792 0.0094456 -0.0393225 -0.0102585 0.00965072 -0.0398016 -0.00816661 0.00927368 -0.0402794 
0.00231123 0.00884825 -0.0402576 0.00382003 0.00956655 -0.0409237 0.00734452 0.00893771 -0.0404382 
0.00904579 0.00940904 -0.0400921 -0.0113065 0.0111026 -0.0395203 -0.00913616 0.0110265 -0.0400808 
-0.00701124 0.0110808 -0.0405011 -0.00103418 0.0102702 -0.0401412 0.00621757 0.0103251 -0.0406325 
0.00793935 0.0108085 -0.0403262 -0.00348894 0.0113978 -0.0398702 -0.00150591 0.0123256 -0.0395913 
0.00219994 0.0118472 -0.0399031 0.00364551 0.0116174 -0.0409423 -0.0116488 0.0128624 -0.0394195 
-0.00992684 0.0126296 -0.0398834 -0.00786731 0.012649 -0.0403432 -0.000137435 0.0135315 -0.0396652 
0.00524426 0.0125723 -0.0407749 0.0072615 0.0131798 -0.0404552 -0.0105974 0.0142894 -0.0397113 
-0.00878815 0.0141748 -0.0401521 -0.00188472 0.0141743 -0.0396445 0.00137093 0.0145133 -0.0400107 
0.00422209 0.0140571 -0.0408846 0.00595289 0.0144883 -0.0406717 0.00884758 0.0139607 -0.0401368 
-0.00959174 0.0157612 -0.0399365 -0.00754339 0.0154578 -0.0404052 -0.00276636 0.0157418 -0.0396939 
0.00438799 0.0158503 -0.0408645 0.00868258 0.0157507 -0.0401732 -0.0125474 0.0163151 -0.0391424 
-0.00738528 0.0172489 -0.0404341 0.00737083 0.0169483 -0.0404411 -0.010932 0.0173023 -0.0396206 
-0.00912643 0.0174832 -0.0400812 -0.0022674 0.0180644 -0.0396926 0.000288914 0.0179372 -0.0398506 
0.00337067 0.0175894 -0.0409642 0.0051797 0.0175143 -0.0407713 -0.0113084 0.0192007 -0.0395131 
-0.00957391 0.0192103 -0.0399756 -0.00770395 0.0190874 -0.0403743 -0.00368905 0.0192016 -0.0395959 
0.00433779 0.0191677 -0.0408752 0.00626173 0.0189545 -0.0406235 -0.0142077 0.000929501 -0.0385731 
-0.0107688 0.000893826 -0.0380134 -0.00927611 0.000980721 -0.0389932 -0.00692109 0.000905027 -0.0389254 
-0.00380635 0.000921988 -0.0392222 -0.00214869 0.000889724 -0.0385454 0.000618132 0.00111635 -0.0393381 
0.00228637 0.000925227 -0.0387017 0.00403591 0.000897417 -0.0391069 0.00582537 0.00089756 -0.0389793 
0.00762445 0.000929341 -0.0390359 0.0110979 0.00089142 -0.0395814 0.0128095 0.00101775 -0.039056 
-0.0153874 0.00270291 -0.038118 -0.0130049 0.00234125 -0.038991 -0.0111908 0.00242453 -0.0388423 
-0.00580686 0.00238433 -0.0389307 -0.00280696 0.00241408 -0.0392438 -0.00101741 0.00183079 -0.0395579 
0.00429848 0.00264268 -0.039441 0.00605643 0.00275619 -0.0391097 0.00857966 0.00243748 -0.0392942 
0.0102954 0.00263539 -0.0397962 -0.0128555 0.00377692 -0.0379223 -0.0107495 0.00394231 -0.0380037 
-0.00867172 0.00294922 -0.038594 -0.00709713 0.00377139 -0.0388726 -0.00437332 0.00330839 -0.0383643 
0.000314617 0.00302212 -0.0396172 0.00220067 0.00346545 -0.0393411 0.0118465 0.00387214 -0.0393562 
-0.0162866 0.00421099 -0.0377424 -0.0145126 0.00423719 -0.0384601 -0.00485882 0.00515756 -0.0383578 
-0.00320042 0.004162 -0.0394171 -0.00172512 0.005137 -0.0388461 -0.000209632 0.00426534 -0.0384438 
0.00151954 0.0051248 -0.0392492 0.00372799 0.00431362 -0.0397562 0.00542116 0.00470166 -0.0391474 
0.00707554 0.00419859 -0.0396461 0.0101185 0.0042635 -0.0390538 -0.0162183 0.00612014 -0.0377645 
-0.0132009 0.00548819 -0.0389223 -0.0106296 0.00561331 -0.0386345 -0.00578648 0.00638356 -0.0392872 
-0.00324659 0.00595505 -0.0393283 -0.000168306 0.00565344 -0.0395797 0.00318313 0.00593882 -0.0392179 
0.00735298 0.00586471 -0.0387887 0.0106401 0.0058562 -0.0397022 0.0126819 0.00544175 -0.039101 
-0.0147315 0.00693048 -0.038374 -0.00931713 0.00682656 -0.0384305 -0.00755546 0.00690602 -0.0387793 
-0.00148673 0.00685001 -0.0393355 0.00239637 0.00742819 -0.0385949 0.00572498 0.0064721 -0.0392538 
0.0123229 0.00734384 -0.0392093 -0.015612 0.00868503 -0.0380194 -0.0130311 0.00801208 -0.0389848 
-0.0114886 0.00814557 -0.0380803 -0.00913447 0.00854088 -0.0389429 -0.00685863 0.00847308 -0.0393163 
-0.00557287 0.00782367 -0.03824 -0.00172513 0.00879878 -0.0393747 0.00607552 0.00828986 -0.0391911 
0.00779568 0.00775456 -0.0391602 0.00946583 0.00766196 -0.0399933 0.0110058 0.00850393 -0.0396003 
-0.0107341 0.00977601 -0.0380752 -0.00504043 0.00919441 -0.0392616 -0.00331498 0.00962814 -0.0394561 
-0.000127756 0.00956445 -0.0387621 0.00449383 0.00913897 -0.0393116 0.00668131 0.00996679 -0.0389379 
-0.015228 0.0108319 -0.0381787 -0.00750463 0.0103007 -0.0389581 -0.00563098 0.0108853 -0.039371 
-0.0041654 0.0107468 -0.03834 -0.00213582 0.0108275 -0.0388383 0.00124725 0.0103549 -0.0395902 
0.00339058 0.0111563 -0.0387517 0.00489556 0.0111379 -0.0397305 0.00921094 0.0107902 -0.038951 
0.0107795 0.0103198 -0.0396722 0.0123439 0.0110773 -0.0392015 -0.0161664 0.0123451 -0.037787 
-0.0130422 0.0115106 -0.0389837 -0.00987003 0.0114602 -0.03851 -0.00815677 0.0119626 -0.0387119 
-0.00471872 0.0123668 -0.0389287 0.000197588 0.0117926 -0.0393853 0.00659292 0.0116995 -0.0395345 
0.00922933 0.0122075 -0.0400531 0.0109715 0.0121691 -0.0396133 -0.012715 0.0130218 -0.0379913 
-0.009079 0.0135184 -0.0385083 -0.0064309 0.0128688 -0.0391333 0.00138762 0.0130469 -0.0388477 
0.0039735 0.0126687 -0.0395243 0.00590109 0.0133394 -0.0392953 0.00807947 0.0129325 -0.038872 
-0.0146288 0.0140642 -0.0384139 -0.0129838 0.0144965 -0.039 -0.00727164 0.0144473 -0.0389426 
-0.00531478 0.0142703 -0.0393854 -0.00361893 0.0136758 -0.0394679 0.00307467 0.014238 -0.039517 
0.00733546 0.0147359 -0.0395504 0.0114256 0.0139036 -0.0394811 -0.0158255 0.016018 -0.0379359 
-0.0141245 0.0157881 -0.0384668 -0.0108966 0.0157539 -0.0387074 -0.00918991 0.0152874 -0.0382127 
-0.00627725 0.0159607 -0.0390677 -0.00448466 0.0158538 -0.0391717 -0.000515832 0.0153772 -0.0395766 
0.0032174 0.0160371 -0.0395103 0.0103866 0.0153414 -0.0397745 0.0125784 0.015239 -0.0391289 
-0.00962047 0.0170429 -0.0384169 -0.0080201 0.0164196 -0.0389706 -0.00320009 0.0170671 -0.0385318 
-0.000991236 0.0170109 -0.0390041 0.00108496 0.0161556 -0.0393021 0.00588349 0.0161047 -0.0398941 
-0.0137476 0.017585 -0.0387373 -0.011986 0.0177762 -0.0382435 -0.00661628 0.0177106 -0.0388751 
-0.00478112 0.0176321 -0.0391662 0.00229984 0.0175833 -0.0394254 0.0040964 0.017595 -0.0393218 
0.00695952 0.0177903 -0.0389178 0.0101685 0.0173632 -0.0398269 -0.0148116 0.0190944 -0.0383407 
-0.0130232 0.0192054 -0.0389822 -0.0100115 0.0189274 -0.0382655 -0.00828538 0.0192045 -0.0386804 
-0.00563409 0.0192052 -0.0389925 -0.00242323 0.0192075 -0.0383285 -0.000907996 0.0192041 -0.0394138 
0.00152248 0.0192029 -0.0395333 0.00331483 0.0192055 -0.0394014 0.00512188 0.019203 -0.0392595 
0.00785809 0.0191216 -0.039808 0.00965055 0.0191979 -0.039954 0.0115564 0.0190478 -0.0394458 
-0.0191172 0.000896267 -0.036389 -0.0175119 0.000896452 -0.037188 -0.0155825 0.000911209 -0.0374271 
-0.0126626 0.000896187 -0.0376596 -0.00820643 0.000896228 -0.037561 -0.00522312 0.000894364 -0.0381251 
-0.00356415 0.000898984 -0.0374455 -0.000461268 0.000895196 -0.0379274 0.00986107 0.000900951 -0.0382893 
[...]
POINT_DATA 10000
FIELD FieldData 7
id 1 10000 int
8611 6436 8592 7463 1402 5001 5548 2254 3494 
7193 4482 2217 2867 6673 9280 216 9774 1614 
4912 6460 2980 2371 7539 1929 508 7077 5956 
3811 1057 8382 4622 4317 1248 6009 2323 4217 
3859 3212 1475 3770 4008 3697 719 3575 9291 
5172 2414 5305 3724 3339 6970 3883 3669 912 
4476 4365 1069 8212 1016 7604 5264 2047 6527 
7027 5144 4601 6277 1259 4128 5061 2133 9438 
2420 2380 5853 1192 88 3893 7054 2582 1528 
839 570 404 4793 4208 4506 5118 797 2938 
8518 1876 4250 411 3599 392 334 6991 3009 
8502 1710 8773 5356 9022 4118 1833 2574 2600 
5116 1330 2457 4520 4717 8351 4276 5945 9284 
1529 7230 2336 2664 4473 1814 6444 4978 1552 
9726 2092 8552 9694 3202 3567 1794 3192 1456 
4783 1650 4064 9519 3973 4423 6395 4235 8358 
4690 40 985 7765 978 2421 9512 4869 6942 
7245 2207 1006 1750 8979 6268 4867 5056 1392 
5981 9717 8780 9592 3890 955 2725 9961 4673 
5866 1224 3546 3604 2230 6025 690 3994 4716 
7918 1256 5392 6192 4341 9396 1345 9170 6126 
8039 2945 1489 6943 625 1136 1664 418 7681 
1935 1401 4510 1309 4472 761 8019 479 8975 
7411 2565 4748 8085 8816 1531 6761 8569 3499 
160 4669 8113 3018 8652 155 1342 1244 311 
7348 6687 4802 2873 1422 2087 4532 509 3593 
766 637 6043 3587 7225 2031 3170 3760 1972 
2251 2018 2807 22 922 1799 4994 3368 4234 
3318 5632 3955 3110 9608 3705 741 109 3207 
6144 2117 3488 1735 3426 9422 1100 3033 8173 
6815 7078 1897 8911 1817 1597 3243 8626 3281 
3774 7176 1487 3451 7152 3085 3823 9190 2388 
8546 8190 1381 452 6588 4026 9057 3801 4441 
460 3035 4749 3958 6240 4849 3430 9775 5758 
2173 7528 9871 3156 2860 1773 8397 5864 4172 
4108 7952 621 5697 3549 8715 1055 7489 5914 
473 1065 1362 8055 9822 2354 8519 8610 3059 
7418 2971 4595 9936 5642 7996 1561 6614 8378 
5316 3474 3249 3692 6430 197 1960 5905 3173 
8516 1883 8153 180 1045 3092 8349 4056 1839 
6156 7754 2595 2908 6171 1879 4866 8790 2797 
8723 47 613 4530 2339 692 39 8586 3397 
4443 1677 3848 616 9584 7440 4852 1800 8698 
3517 3113 6418 3552 8312 2417 5425 1325 1689 
4677 5079 8529 1865 3027 7611 3013 986 859 
9117 3246 3438 5127 2804 7470 4803 5266 1436 
4667 3522 3253 1323 3015 3772 3270 1753 4831 
1807 8197 6180 2861 8871 3932 1212 8994 1204 
1120 4853 6565 182 438 7046 4104 1014 7472 
2649 4426 2597 2260 2844 2926 2131 1518 3271 
1585 357 5436 7353 1940 9595 6046 1825 5260 
3001 2471 8987 8858 7424 5607 2995 379 4325 
3417 2530 7766 8804 1870 6098 5703 2383 4564 
2803 7803 9297 8791 1267 2561 9124 4394 9300 
6137 994 4214 4377 8033 3410 53 4272 5402 
1383 577 581 949 1697 5269 1996 9701 5534 
2835 7529 1414 2306 1197 7076 8765 6599 2479 
4722 6583 1970 4961 2667 4981 433 4002 4184 
3 6862 8764 3470 9953 2614 4310 4629 6920 
2282 9910 865 2007 6852 2116 2462 1164 2706 
8550 2606 1600 5643 9845 2657 8789 8903 9154 
729 4745 7696 857 463 6778 7016 2668 3764 
717 194 1555 4229 913 295 6373 3579 2085 
518 9262 3763 3867 1209 2465 1783 4228 5473 
7410 6222 2907 4233 2836 3193 9957 1603 4143 
642 1074 6056 728 2006 3725 2032 2948 5676 
2554 9565 9409 3460 2956 8025 2321 2884 3993 
4268 9996 3846 2225 6839 5750 2979 2163 8751 
4319 1479 5640 8469 3284 6364 1316 4401 966 
8269 3419 264 4150 4738 2967 8192 9418 5041 
8334 8057 9356 7311 3963 209 7157 8955 5935 
4639 3876 9197 3538 5323 5249 8557 6401 5178 
2749 4025 5952 2331 6508 2481 9662 4804 5528 
4316 2761 9068 2598 9535 7001 4548 2718 2447 
5154 16 6307 9727 8361 1634 5884 9041 9605 
4944 7103 2107 453 595 3596 9213 1894 2051 
6023 9466 4493 1706 4755 4318 6763 3143 8052 
3357 5133 5207 3900 4926 2879 4205 1449 4879 
9723 6888 7564 4179 8952 9975 2234 8731 1318 
422 1343 939 495 5764 2922 3543 1780 4153 
3825 5288 92 5593 4501 5250 143 3079 4649 
6976 7705 8852 5661 3802 4242 4331 3638 5045 
2156 1080 150 8578 5487 8923 5468 7144 2857 
5872 9028 2295 2467 4236 2766 6080 2588 8273 
1514 4479 7978 4925 4710 8146 1394 4726 2292 
4411 789 5372 1193 7130 3019 4611 8314 4204 
1251 2149 7602 1990 3649 326 370 6467 9099 
4109 3010 1739 943 2756 8320 339 4456 9962 
273 6524 10000 9883 1566 5605 2702 5684 1705 
2755 3111 2181 6710 8134 1335 3885 3708 7141 
4658 5630 5600 3512 4845 3824 2806 9902 4437 
7480 5746 72 1849 6858 5138 9165 5846 4833 
3293 5307 3220 8549 2317 989 6148 9428 242 
2118 2249 5410 4760 8618 7415 2487 8514 519 
7771 2263 3028 2122 3287 5644 528 9043 6741 
6119 6402 86 4009 974 5062 8801 65 4715 
203 8899 2157 2903 7714 6061 8666 8510 5276 
4332 4074 4083 572 8963 3981 2575 3021 4166 
5040 8353 4068 5637 3077 4890 1729 8820 1686 
67 4070 4120 8384 7669 1512 8124 1802 9939 
4483 6114 1792 4997 2568 5782 3905 8327 7276 
7676 523 2531 7444 8782 4983 721 2792 818 
2930 6721 5851 7837 254 1533 2151 2109 2743 
270 9375 7711 2257 1916 4713 1002 3048 9896 
723 7935 4368 9130 1005 902 2345 4043 3154 
9437 8999 4370 3988 3327 2632 2222 245 1747 
5294 1044 9489 6647 3377 2456 1536 4463 6580 
838 3961 2999 3406 3385 2618 3152 4067 1981 
657 2872 7697 3150 7329 1434 929 998 7364 
1171 5634 3924 5814 1013 3576 802 1416 1032 
6028 5293 2644 1058 965 833 8371 4017 4784 
2061 3140 1958 2974 3871 6615 2989 1797 4004 
3571 8007 6960 4584 8828 6167 1223 3612 1079 
5691 645 9497 8118 144 1275 1411 1716 9079 
2243 9108 5824 1127 1856 8832 2408 4293 8355 
7964 4028 6885 8689 9564 1081 2398 1194 3516 
464 7844 1092 2858 2068 3855 6071 703 869 
3221 2847 7213 4307 4909 4356 5784 9714 5201 
9487 3590 7029 5089 8305 2486 9490 8304 9474 
599 5871 3309 7106 875 9875 5879 9683 6670 
4164 8141 8951 158 4854 1327 5049 1424 5772 
4642 2334 3714 1661 8030 1086 2077 319 1765 
5162 4372 3352 1606 2868 6916 8533 5141 7282 
7423 4587 2238 9799 4363 3141 6708 9858 686 
8381 4810 4485 7923 7267 3623 5790 2932 7412 
7156 583 7520 2277 9699 4275 247 2890 8883 
1553 7618 4427 6133 2669 6522 7631 975 7390 
910 2584 1984 8082 6658 3606 6158 1652 2941 
3131 884 9915 5306 2274 175 8750 90 4555 
1208 9078 6938 3821 6415 1319 7000 3472 2609 
4615 8932 8292 6272 750 9849 7199 2075 2359 
4484 2147 2931 6499 9163 6762 2800 3928 127 
7538 806 6109 9518 3435 2883 6423 6045 2679 
1662 233 6566 4454 7744 5713 1213 5311 2960 
6884 5139 4554 2940 5718 1477 1668 8894 8447 
481 4142 6385 9693 1847 9526 601 5482 4101 
5515 5966 1497 8446 1071 3589 4787 4457 8123 
7434 6054 3762 4462 5525 6591 7788 3392 1182 
6087 2811 8829 7861 1462 3130 472 976 8187 
6951 2124 4192 580 2717 914 1015 1290 6831 
7379 3620 1026 5174 2557 8071 608 9941 1793 
6790 2119 9338 9782 950 2535 7535 4671 7011 
3245 5526 8084 420 7219 315 5074 3381 3367 
4277 3388 1991 7203 2878 1129 3099 536 5422 
5393 9052 96 6720 2627 3119 9026 3868 102 
804 6073 2103 9607 3296 4988 6886 6441 4438 
9270 1584 7222 2044 8547 9816 9762 6672 2898 
3405 6656 9095 3534 1007 9963 4809 2401 6484 
169 5379 7866 217 7174 1368 1718 5067 2837 
590 4329 3344 8389 7118 5848 7530 1988 7261 
7574 5699 6006 6715 6819 4863 2307 5086 3418 
6356 3227 8523 1629 3300 8969 8492 6982 7674 
3837 4518 3050 1404 945 6638 3916 9515 9042 
8437 4264 8593 1722 5822 8925 8540 5759 4171 
5732 107 5105 8920 5742 769 7854 7207 5821 
4697 3598 2734 6782 5970 9235 2202 3308 516 
6516 954 1862 1784 8986 5272 7867 5745 1669 
3578 6083 535 4273 3570 3879 2160 4801 7801 
6190 6893 4247 3322 7137 1177 2794 5961 4628 
768 1874 3595 3626 4416 8364 9220 8728 1320 
7544 183 79 8674 94 286 3341 1130 6274 
6498 11 4618 3073 4920 4311 2360 5603 7625 
4522 289 267 4178 1173 5582 4929 787 4500 
2985 803 6650 1128 1932 3134 1917 3908 1236 
722 834 6830 9531 3258 3608 4334 1754 9066 
6979 2513 4707 8959 4674 842 5623 2162 6602 
7752 8984 1779 1139 1498 952 9514 2351 5360 
1902 6854 1721 356 252 7706 4313 1453 4546 
1278 4874 3203 9704 7114 5192 8203 9801 6389 
4240 772 1889 2030 3816 1767 8290 3917 6069 
2585 793 6548 7252 6901 5858 8562 6923 5007 
845 2566 6969 1973 3174 4753 5947 799 7100 
8360 2014 3198 6286 3514 5108 6258 3892 2886 
988 2602 8365 2015 3765 6924 4776 4107 5912 
9323 6051 1272 5919 7931 1556 5101 6772 3262 
6686 8476 224 3408 9536 4435 2891 7506 8313 
6491 8848 6645 6226 9677 6355 8535 6434 5321 
8656 4952 6632 744 8126 8095 3362 2972 1693 
7397 1310 288 4037 8937 5300 4571 6895 6049 
1077 8117 9335 1619 1374 2498 8554 6397 531 
2204 2596 8619 5616 4077 2816 9004 1997 4289 
8367 7050 2504 2200 2819 7914 8274 7814 1763 
7548 1884 3585 4176 745 1796 3424 5120 6783 
7885 6289 7786 6305 858 5618 7757 2635 1429 
9333 5433 3194 3645 5160 4455 8359 874 5218 
9087 9617 9038 8288 2284 2071 3954 7557 677 
5484 3915 9217 4941 6264 4643 3745 55 8207 
2700 8428 9462 2741 1146 9712 8939 4391 7154 
402 4682 2842 2901 5317 3169 5032 462 1500 
3444 7901 9469 9589 3265 6211 670 1559 9659 
6398 4737 4841 8968 6712 9751 9139 9814 6794 
932 7438 4136 4557 1904 9354 1680 7843 3429 
5818 3254 5493 888 624 7433 1313 6593 6096 
7860 410 3476 1186 3043 3754 7304 7312 4907 
4974 1941 174 1195 168 4337 5542 3286 3016 
7862 3518 8745 374 5496 9408 1922 8301 5809 
6505 8422 2464 7802 140 6665 1140 705 4196 
3208 2258 9636 3065 2547 4030 9978 737 6407 
110 4339 3252 5794 166 3627 2698 2463 3910 
2084 3992 8875 493 2210 2038 3588 8471 9059 
2154 75 826 2555 1469 1410 1111 1968 6555 
4536 6781 7247 5058 7603 8074 9161 5381 8362 
1119 9682 1733 4596 7840 3185 4494 3864 5013 
37 9604 5474 6691 3700 2656 9382 7169 5566 
1663 7971 1732 210 5150 7811 2472 5035 8684 
6779 1548 9630 7977 8585 3808 2441 1692 7326 
1886 4706 8111 6578 4839 146 763 141 3977 
9132 8011 3556 5922 6153 1426 7512 3070 8281 
1172 9537 4282 4116 2212 620 1524 9207 2558 
7930 8302 9817 6125 8238 9319 6068 2545 3655 
3806 5695 3106 5552 2079 3089 1294 3116 3535 
7499 6789 8429 2490 5869 2113 5135 3094 9228 
9974 7781 6422 7186 1176 2626 3611 1377 5458 
8112 1417 609 4296 9122 66 6279 3746 916 
3500 9947 7965 9906 3822 60 2686 20 7342 
7466 1803 9654 6476 4838 8796 2951 3261 9622 
7289 7060 7200 8544 9194 5406 9840 1068 1336 
3536 9414 2758 1003 3856 4353 4460 5612 9688 
673 5622 3493 8075 5668 957 8527 3524 8445 
3403 9468 4160 9008 819 4627 1971 6707 3858 
322 491 2484 4825 4734 2665 2607 5239 1301 
6247 108 8252 2760 1240 8838 5320 9088 4094 
8638 2082 2826 5904 7636 4577 4575 2692 4343 
7671 5867 1078 8001 9620 9171 9342 4823 9859 
3964 5059 8073 5472 9657 7295 6060 6812 9069 
7561 4381 6571 2846 3230 6318 9619 7992 8277 
1191 5031 62 1756 1813 2176 6097 1838 5546 
5891 6201 3836 125 5737 3491 8877 7503 6875 
7938 287 318 3681 6235 1042 7642 8572 6822 
8940 5111 2959 4461 1098 1473 6587 925 4297 
5377 4203 1150 4357 5887 8464 3387 7708 5776 
2387 7728 6988 297 5572 650 215 8256 305 
5449 6354 4263 5689 6619 1412 1906 4947 5842 
52 3036 5561 7649 1964 1398 3643 7292 8530 
3040 6130 4862 3751 7308 653 715 2418 5230 
6246 3693 8575 2929 4822 3827 4846 5187 1167 
4790 6386 8943 5702 2793 2412 9281 7240 6611 
6204 757 8286 8104 8494 8098 7648 3068 171 
9890 993 665 2281 4369 991 3842 1356 2374 
1041 8845 4081 606 4861 7762 4872 4775 1010 
1087 4232 2179 4646 8237 477 2183 6301 5084 
7585 9753 5431 2526 298 1786 4033 9435 1121 
4134 551 6449 290 15 1791 7358 1183 7332 
6780 7778 1624 9601 9967 7756 9867 5126 9036 
2083 4626 4255 6215 7402 8851 6336 4149 2352 
4652 2239 706 3755 5212 2445 9402 2802 1523 
8099 4550 4147 1811 9743 9126 8757 3477 3146 
9449 8988 7579 9263 5295 4656 1819 817 4857 
9997 743 2425 7583 2164 3884 8391 9265 1201 
68 1393 9629 8205 4434 380 9433 961 3294 
4087 9242 1543 927 3515 4422 5057 6679 3507 
8174 4410 3946 9507 3366 8485 4778 5495 7251 
3909 7739 3562 8487 2283 80 292 1892 7937 
4105 4884 5983 7086 3999 9415 3492 1866 4613 
5252 3323 1923 909 157 3017 1390 3633 4553 
5229 2875 5609 9288 6214 2130 3328 3701 324 
1175 291 1379 1425 4218 222 1742 4106 9025 
2519 375 5523 5720 8727 7384 2674 4354 967 
886 2231 6646 2114 1568 7652 9024 6185 918 
4696 7491 4387 207 924 3683 1486 8438 3267 
6878 465 8761 2952 6965 6726 923 6742 2633 
310 6325 9440 8981 6266 2661 7369 4589 5420 
6160 8721 7619 3951 1269 5155 4955 1351 2637 
6909 5152 1952 6777 3211 4198 578 6019 5836 
5337 8548 218 5375 8407 1289 9296 4765 2259 
2098 3045 7211 4767 7554 4886 1832 4906 4751 
4085 2175 2580 6291 8470 2655 8537 7970 4517 
3918 2559 5455 835 5335 3741 6625 8375 4943 
1785 663 4808 425 9483 4709 8376 2961 5200 
4899 4782 2994 9968 4481 3288 7089 263 6503 
4084 1994 71 3828 7321 6635 7567 2752 2538 
8215 977 7628 4359 7755 4480 2403 661 250 
3313 3792 5411 6890 2193 9639 605 3668 3216 
9176 5114 2240 1001 1805 9545 3129 1641 1625 
395 8634 1472 3489 5849 3025 2691 3122 198 
5584 9861 3602 2326 1790 6186 6184 2358 2102 
4286 4733 2305 9359 6760 5282 713 2658 9571 
7667 437 9180 3485 5346 3505 809 3329 7442 
5331 1562 6994 6188 3180 5491 6335 951 8711 
7560 5686 6930 2129 384 9502 8991 3625 4414 
736 6428 4545 3305 1896 9655 4742 1468 8859 
5832 3118 7095 9125 1926 2214 6753 4099 4897 
7760 4210 9999 4100 4918 3502 9340 2827 5621 
7285 3690 6640 282 3800 3921 7260 7666 9940 
7983 4397 900 708 7988 7223 8250 8466 4573 
6312 2039 7476 7441 632 3803 9467 4290 9478 
5855 4740 9471 5267 1400 9102 7810 7904 1233 
1558 4324 3057 7986 6471 3919 3022 2301 5416 
83 3592 7545 1504 5583 4182 1337 8846 4475 
1651 3569 8451 1967 908 1687 9243 2786 1495 
6353 9761 7670 7258 4053 5646 4914 2866 9348 
8855 540 2896 3658 1787 2250 2150 8600 9018 
3907 2089 3126 4300 6404 9034 301 9721 9880 
1019 8268 6689 7340 3527 3533 9075 2759 7833 
7023 3703 6832 3342 6177 1557 4358 7725 5555 
7357 409 1771 1822 8739 3375 1258 5550 4993 
7297 5978 5054 9337 8950 1708 1444 1250 6740 
9430 8641 1502 3215 5569 3936 9737 6607 8284 
6486 5581 6406 8640 5125 1357 2262 8272 4684 
2195 2623 7236 1989 3242 9451 571 3666 1909 
4173 8103 6655 1560 2579 5717 6101 130 6199 
6528 2008 5780 5694 1743 8807 6044 1406 513 
5595 3069 3870 4159 7069 7916 1951 8531 6276 
2862 6509 1036 5885 5361 9644 9061 2073 7524 
1056 5959 8628 3166 3257 953 2899 2654 7117 
2329 5799 4256 4989 4895 8243 6391 3373 6310 
5754 2126 903 8387 4322 3878 2625 1804 6461 
4373 3334 7942 9439 699 1108 5775 9271 1084 
5625 4262 505 3363 6724 9868 2542 8282 8716 
8490 5263 9157 9628 4797 8699 3991 7758 8692 
9679 256 1829 7800 1170 9037 6579 1632 3349 
9784 5812 7079 9914 5916 1132 6393 4756 2662 
7070 4889 1607 5547 2170 2919 626 6082 442 
246 4220 1954 3583 6347 4525 2011 3012 9578 
3715 6974 231 3372 619 6123 6766 2023 7218 
1659 4791 3011 6829 5685 5777 2854 5428 5216 
1034 8545 3097 7183 1053 1070 2906 2630 959 
6104 6425 1616 5755 3747 2719 3914 9922 4096 
560 2720 5173 6582 6757 6928 2744 9094 9021 
6016 8691 249 5663 1571 4425 1123 8311 4811 
7168 5456 3974 764 8936 2651 5202 4224 6014 
9267 399 9800 9341 1741 9308 2052 6132 3098 
6254 4931 6478 3948 9866 5231 2436 2676 6937 
9149 4350 4759 3463 5903 8702 8241 8755 7127 
106 4266 5898 340 527 8372 458 688 7349 
4664 2228 8178 8563 9401 8279 2168 9656 7526 
388 5736 3210 415 5071 2659 8310 8746 9658 
3074 8882 3448 4001 6664 5873 8182 9049 5575 
4817 8521 1942 6604 2330 9635 6538 5444 1052 
7998 5131 3672 9084 3525 6717 8154 3504 4843 
5968 3008 89 2300 1576 1816 3007 7279 7875 
6331 7716 3402 2838 7658 1460 5438 4693 3002 
5097 9010 1666 5012 8239 8635 877 815 4911 
251 2506 2975 138 9150 4662 2493 7876 3473 
8191 4820 6086 3165 8814 449 5333 3142 4814 
5081 8336 3689 5719 7608 2621 682 8128 843 
9215 4805 3577 9741 2713 1540 3503 5749 8278 
378 7116 1106 1295 9169 5649 1199 5930 4560 
3960 6241 9178 2619 2678 3789 8868 461 4013 
7290 5996 306 6820 550 8748 1431 8624 6338 
2424 9371 8722 8800 9903 7401 8768 8275 2208 
3457 9696 1983 23 8775 6682 5382 2684 1160 
36 5927 822 4503 8489 533 7536 7827 8242 
9646 8704 1011 6076 6154 7890 7645 2090 576 
6639 7228 3788 2916 1061 5714 9098 7958 9563 
8601 2714 2348 731 6362 1635 5928 6193 9372 
4998 8539 8116 5789 5708 9876 9587 4066 9813 
1702 7780 7386 2269 1738 4404 1439 5650 7082 
656 8597 881 8560 1280 1745 7026 332 6174 
1091 459 9383 872 9056 2256 8319 2035 1163 
7849 2276 7792 4516 3635 6595 7021 7960 2365 
5610 8895 7774 2188 5724 32 8144 5752 4170 
486 4966 5466 5808 240 3234 5094 8023 444 
7887 4720 2491 4078 1189 1137 9425 6314 5344 
5941 7243 2646 5149 6078 2449 3409 6949 7994 
3776 2402 9614 9650 3787 7993 4705 159 1403 
98 3685 8478 2774 7204 5237 4206 9508 6738 
4110 3348 9811 9844 6437 9044 6131 7165 5017 
4957 8051 8836 3699 1040 4320 6907 4665 2943 
2189 7695 7188 562 1821 5373 7123 2877 8924 
6468 3582 4581 7202 622 70 6931 6868 3412 
7284 2829 2818 7912 5701 1703 8328 4542 4666 
5130 1094 2787 6317 5098 8449 6676 2227 6525 
5537 3055 5675 4352 3903 3636 9093 2551 9407 
8475 8697 9321 9201 3783 6773 6977 97 6722 
8138 4392 2495 824 5194 6918 1636 1846 6835 
8637 5359 716 8762 163 7627 4964 1035 2955 
3572 8870 5531 7736 1858 4953 724 2731 547 
5680 7741 7443 7656 8564 1492 4061 9106 5095 
241 6637 4168 3478 8332 1544 2458 3902 4541 
7991 478 6169 2224 9366 3024 3710 6020 885 
6770 9894 4558 794 8472 2405 1234 7853 2814 
1296 2410 7013 2771 5627 9048 680 8587 558 
6018 9575 3042 5985 4021 2642 6847 7028 6560 
6050 8231 4908 3376 9980 6501 3799 9924 496 
7974 6079 3956 447 3829 4942 3660 2572 9331 
5499 5068 8309 7817 7004 8653 4903 1578 5424 
7710 1731 3101 8251 7563 4971 6384 6358 2099 
9017 1564 5460 5182 8308 8942 8426 3809 2936 
7232 2737 2245 3711 767 6520 6882 4606 5246 
4761 8556 6197 139 936 3425 5401 8086 6483 
3920 4287 855 8686 8831 1604 4894 8417 3299 
457 539 6309 1333 9986 4243 7315 6843 3526 
443 7804 8010 6563 2897 8459 170 4566 980 
2631 1321 2442 2757 3843 8088 6244 2229 7886 
8598 2135 448 7961 2603 584 9195 2496 8257 
4049 9949 6733 7693 6952 1760 5180 3644 5060 
4496 3566 5327 2435 117 6863 9643 2789 1076 
3109 121 4701 5053 4063 2962 1867 702 7700 
7010 6164 1589 2740 5733 5519 391 5132 2533 
3394 532 4375 8143 4374 7430 6369 9011 1205 
8944 8568 8418 7507 8021 1145 9118 3702 6552 
3436 4115 4644 861 2770 5620 2935 3197 4569 
3380 4139 1143 2823 7161 3759 5568 1656 4512 
4827 1679 3941 4928 4458 239 827 3654 5796 
4388 2988 8265 9365 5731 8491 6568 6806 1945 
4335 517 8063 5302 5418 4144 4 6152 1993 
9420 279 6270 5240 7428 2813 5233 1859 2027 
899 7405 6963 7167 1772 5142 3532 7504 3145 
9080 8214 4779 7320 6075 9119 4007 498 5088 
9064 5005 1978 9394 5924 7375 341 6135 5567 
6581 1911 1144 9339 5536 3784 8862 7905 7139 
1365 6950 113 6162 8885 7051 1711 7238 4514 
8806 1806 9302 6035 8623 7553 7363 6260 4092 
17 8307 521 5465 7147 6749 7362 1232 1749 
1574 78 1324 6157 8742 2937 2353 7941 9183 
2564 2369 3767 201 9773 2146 1047 6824 4999 
6648 8970 8997 3696 1701 6494 3560 1828 118 
5033 51 7030 634 6557 5000 8161 424 2152 
6572 6202 4127 2272 4212 8474 5129 8712 6052 
8670 7989 6813 8115 1029 9316 9364 4882 9047 
4091 5844 4058 3095 600 4215 2699 9596 3132 
3360 6603 8042 3224 7037 9083 6853 5070 6262 
6127 4283 7064 9567 4721 9769 3390 1371 9486 
7633 4676 1695 4312 9143 8443 1399 996 9325 
1513 2942 8972 5221 1657 3790 2541 1 7124 
1912 1599 9988 848 3225 3456 7501 7047 3943 
1944 6308 8694 5744 377 8756 2736 507 561 
7601 1855 4824 7275 946 3124 1270 3354 7661 
4568 8264 2288 6062 4445 2155 4299 4648 7852 
1938 4741 1350 5407 6482 5168 1937 643 530 
9520 856 7982 4201 8090 2291 828 4963 3959 
1114 2697 7883 4012 870 4259 9946 4539 1683 
1752 2460 5452 2660 6206 6191 7928 1297 1054 
1857 115 2982 2593 7808 3851 6233 5971 4816 
7623 1827 8865 9192 7718 7249 7770 7806 8976 
373 5188 7872 3439 2437 7435 638 8261 4223 
101 7826 5265 7654 2523 3350 9227 4754 5367 
1102 2693 2379 7126 3423 687 6534 4468 4565 
7112 6825 6090 2716 9023 3260 7720 3677 1113 
1872 9218 8690 696 4917 9112 667 6250 2289 
3591 6953 3748 4967 4130 1594 9186 8220 2611 
5906 3487 9725 2056 5900 941 6388 134 7392 
3427 7549 9492 7807 5915 3282 933 7940 7071 
335 7789 2947 981 2309 3646 6731 4202 265 
1639 2344 1525 3814 2042 2000 4702 9210 4650 
8849 9040 2247 6706 5578 1329 4141 9470 1211 
8297 6475 483 1868 3563 6029 8835 1982 5761 
3072 9369 5601 8409 9355 7680 7454 4608 3899 
5006 2666 4770 3810 4972 3983 1907 6464 9444 
4865 4524 9114 7719 2613 5342 5475 1018 537 
9167 1623 596 2850 4883 3647 844 1963 3244 
5813 2002 3133 734 5633 5843 162 8316 7805 
1713 5128 7323 7515 8232 2845 2870 4985 3311 