# vtk DataFile Version 4.2
Generated by LIGGGHTS
ASCII
DATASET POLYDATA
POINTS 10000 float
-0.0188114 0.0016404 -0.0365441 -0.018846 0.0034807 -0.0365274 -0.0188272 0.00529703 -0.0365398 
-0.0178421 0.00790757 -0.0370373 -0.0181938 0.00979574 -0.036853 -0.0191287 0.0125875 -0.0363783 
-0.0181292 0.0140655 -0.036885 -0.0187503 0.0157198 -0.0365745 -0.0187862 0.0175129 -0.0365591 
-0.0202846 0.000955171 -0.0357518 -0.0196141 0.00253161 -0.0352127 -0.0203987 0.0050753 -0.0356869 
-0.0177335 0.00440531 -0.0354355 -0.0212819 0.00664887 -0.0351627 -0.0195066 0.00691239 -0.0361719 
-0.0210124 0.00841826 -0.0353248 -0.0194692 0.00870583 -0.0362021 -0.0177696 0.00866436 -0.0354234 
-0.0196858 0.0107426 -0.0360862 -0.0181417 0.0105045 -0.0352002 -0.0214679 0.0118576 -0.0350465 
-0.0205782 0.0133291 -0.0355816 -0.0189103 0.0139835 -0.0352674 -0.02037 0.0151097 -0.0357041 
-0.0202717 0.0169032 -0.0357537 -0.0208423 0.0185754 -0.0354273 -0.0193028 0.0192061 -0.036286 
-0.0177038 0.0191952 -0.0353541 -0.023381 0.000964228 -0.0338081 -0.021826 0.000968423 -0.0348232 
-0.0194785 0.000895212 -0.0341521 -0.017983 0.00089243 -0.0351392 -0.0214897 0.002729 -0.0350402 
-0.0231258 0.00367955 -0.0339784 -0.0219485 0.00503244 -0.0347501 -0.0194758 0.00414867 -0.0344398 
-0.0233743 0.00559605 -0.0338093 -0.0202832 0.00569692 -0.03401 -0.0186293 0.00577729 -0.0347013 
-0.0228154 0.00726183 -0.0341875 -0.0196972 0.00740522 -0.0344587 -0.0233085 0.00899796 -0.0338589 
-0.01922 0.00913325 -0.0344797 -0.0225935 0.0105695 -0.0343392 -0.0208907 0.0101581 -0.0348979 
-0.0229619 0.0123087 -0.0340889 -0.0196669 0.0120161 -0.034765 -0.0222079 0.0138608 -0.03459 
-0.0201932 0.0147617 -0.0339566 -0.0218521 0.0156109 -0.034809 -0.0189314 0.0157416 -0.0347843 
-0.0205068 0.0165294 -0.0340134 -0.0220046 0.0174024 -0.034712 -0.0188335 0.0175393 -0.0347674 
-0.022823 0.0190335 -0.0341823 -0.0194413 0.019207 -0.0344965 -0.0251433 0.000899114 -0.0325175 
-0.0208889 0.000997572 -0.0330512 -0.0178711 0.00089444 -0.0333473 -0.0243019 0.00236072 -0.0331456 
-0.0221424 0.00222034 -0.033452 -0.0204022 0.00263757 -0.0336096 -0.0184425 0.00258806 -0.0338532 
-0.0247404 0.0043765 -0.0328223 -0.0214882 0.00403924 -0.0333272 -0.0178739 0.00433546 -0.0336472 
-0.0217974 0.00618317 -0.0331686 -0.0184868 0.00585339 -0.0329011 -0.0199277 0.00691904 -0.0327464 
-0.0179615 0.007589 -0.0340026 -0.0244118 0.00782911 -0.0330662 -0.0212103 0.00784345 -0.0335992 
-0.0246539 0.00969201 -0.0328859 -0.0214971 0.00959145 -0.0333074 -0.0199254 0.00885645 -0.0328518 
-0.0197151 0.0106285 -0.0336291 -0.0181862 0.0110997 -0.0328234 -0.0243529 0.0117278 -0.0331059 
-0.0215698 0.0115349 -0.0332263 -0.0240645 0.0135039 -0.0333226 -0.0208026 0.0130432 -0.0338239 
-0.0190662 0.0134256 -0.0335665 -0.0251882 0.0146225 -0.0324784 -0.0218865 0.0147074 -0.0330444 
-0.0176969 0.0146294 -0.0337633 -0.0234594 0.015228 -0.0337483 -0.022548 0.0163314 -0.0326541 
-0.0188635 0.0163901 -0.0328063 -0.0251495 0.0178004 -0.0325161 -0.0235067 0.0174363 -0.0337142 
-0.0213585 0.017654 -0.0329013 -0.0196118 0.0179711 -0.0332091 -0.0241148 0.0192027 -0.0329447 
-0.0210821 0.0192042 -0.0337644 -0.0178998 0.0192024 -0.0335739 -0.026537 0.000894393 -0.0313864 
-0.0224913 0.000893666 -0.0322546 -0.0258968 0.00248191 -0.0319198 -0.0230059 0.00257776 -0.0319184 
-0.0192952 0.00168913 -0.0325537 -0.0212259 0.00282222 -0.0320304 -0.0192689 0.00370208 -0.0327063 
-0.026147 0.004251 -0.0317096 -0.0229495 0.00454886 -0.0324162 -0.0205185 0.00517271 -0.0323125 
-0.0253204 0.00602064 -0.0323819 -0.0267021 0.00747253 -0.031255 -0.0235825 0.0064636 -0.032245 
-0.024917 0.00763949 -0.0313578 -0.0226576 0.00797154 -0.0325441 -0.0184925 0.00790885 -0.0323211 
-0.0259654 0.00901502 -0.0318561 -0.0229594 0.00980755 -0.0322952 -0.0214699 0.00909884 -0.0315794 
-0.0189479 0.00987561 -0.0317398 -0.0265505 0.0106676 -0.0313828 -0.024687 0.0106494 -0.0313641 
-0.0205728 0.0105769 -0.0320625 -0.0231596 0.0115123 -0.0317774 -0.0214576 0.0120364 -0.0315057 
-0.0197752 0.0120954 -0.0325941 -0.0256472 0.0125042 -0.0321241 -0.0240211 0.0130731 -0.0315804 
-0.022491 0.0130993 -0.0325199 -0.0208123 0.0136 -0.0321179 -0.0182357 0.0128849 -0.0320706 
-0.0265807 0.0144716 -0.0313552 -0.0234132 0.0147096 -0.0320257 -0.0187416 0.014669 -0.0323122 
-0.0204782 0.0156187 -0.0324088 -0.0260124 0.0161109 -0.0318227 -0.0243307 0.0162014 -0.0324773 
-0.0234627 0.0177015 -0.0319028 -0.026486 0.0192016 -0.0314318 -0.0223951 0.0190506 -0.0324374 
-0.020654 0.0192049 -0.0320196 -0.018758 0.0191953 -0.0320014 -0.0240609 0.000903965 -0.0310845 
-0.0223736 0.000897627 -0.0304675 -0.0207453 0.000899136 -0.031265 -0.0180328 0.000892807 -0.0315523 
-0.027692 0.00225699 -0.0303761 -0.0259487 0.00262356 -0.0301276 -0.0217411 0.00257256 -0.0303368 
-0.0198141 0.00241633 -0.0310003 -0.0180852 0.00236132 -0.0305236 -0.02448 0.00332969 -0.0312184 
-0.0228522 0.00391959 -0.0307394 -0.0275001 0.00403803 -0.0305456 -0.0242161 0.00510301 -0.0312655 
-0.0210866 0.00421696 -0.0309055 -0.0189298 0.00491521 -0.0314233 -0.0273044 0.00581785 -0.0307194 
-0.0255343 0.00612804 -0.0306076 -0.0223875 0.00565799 -0.0311208 -0.023699 0.006687 -0.030447 
-0.0208557 0.00658539 -0.0312529 -0.0188643 0.00667648 -0.031065 -0.0260582 0.00863613 -0.0300511 
-0.0222315 0.00765612 -0.0308327 -0.0199548 0.0081421 -0.0312041 -0.0177311 0.00848938 -0.0307965 
-0.0277758 0.00919919 -0.0302957 -0.0238795 0.00906822 -0.030946 -0.0280401 0.0111854 -0.0300596 
-0.0226398 0.0103308 -0.0305235 -0.0208508 0.0102593 -0.0303261 -0.0256202 0.0118823 -0.0304459 
-0.0273807 0.0129317 -0.0306616 -0.0213332 0.0134743 -0.0304031 -0.018944 0.0130082 -0.0304337 
-0.0279708 0.0145352 -0.0301033 -0.0248104 0.0144359 -0.0307251 -0.0198341 0.0144941 -0.0309069 
-0.0175781 0.0141888 -0.0310322 -0.0259628 0.0156437 -0.0300693 -0.0217522 0.0149915 -0.0312747 
-0.0181826 0.0159466 -0.031177 -0.027606 0.0162619 -0.0304538 -0.0244001 0.0162899 -0.0306817 
-0.022622 0.0165025 -0.0308338 -0.0205817 0.0162455 -0.0307359 -0.0275249 0.018054 -0.0305234 
-0.0256655 0.0175604 -0.0308193 -0.021602 0.0179502 -0.0311467 -0.0198459 0.0177083 -0.031452 
-0.0180655 0.0177412 -0.0312051 -0.0247453 0.0190938 -0.031009 -0.0229732 0.0191701 -0.0307396 
-0.0197121 0.0192089 -0.0304853 -0.0285478 0.000898786 -0.0295679 -0.0266526 0.000891218 -0.0296006 
-0.0248966 0.00128817 -0.0295385 -0.0208789 0.000895697 -0.0294753 -0.0192437 0.000900251 -0.0302227 
-0.0289563 0.00266158 -0.0291628 -0.0235068 0.00230707 -0.0301031 -0.019841 0.00234213 -0.0292078 
-0.0264944 0.00396077 -0.0290548 -0.0246668 0.00371457 -0.029475 -0.0209821 0.00393359 -0.0291381 
-0.0191041 0.00376517 -0.0300512 -0.0283327 0.00433914 -0.0289808 -0.0235502 0.00511209 -0.0296003 
-0.0288095 0.00604241 -0.0293119 -0.0270881 0.00565969 -0.0289396 -0.0253207 0.00532622 -0.029012 
-0.0209222 0.00562169 -0.0297448 -0.0183962 0.00539193 -0.0297739 -0.0275833 0.00729774 -0.0297082 
-0.0258931 0.00709534 -0.0291422 -0.0223143 0.00672575 -0.029304 -0.019944 0.00713608 -0.0297011 
-0.0179957 0.00718759 -0.029573 -0.0291837 0.00776396 -0.028948 -0.0244273 0.00806684 -0.0295618 
-0.0227259 0.00881651 -0.0295566 -0.0209183 0.00864132 -0.02955 -0.0289661 0.00983933 -0.0291135 
-0.0247914 0.00982551 -0.0295948 -0.0191501 0.00887223 -0.0297728 -0.0174861 0.0100156 -0.0297303 
-0.0265189 0.0103206 -0.0296262 -0.0191493 0.0106626 -0.0299143 -0.0268078 0.0121806 -0.029138 
-0.0238873 0.0116493 -0.0300682 -0.0221387 0.0119645 -0.0298473 -0.0203627 0.0119719 -0.0300807 
-0.0286885 0.0129252 -0.0294351 -0.0250693 0.0127312 -0.0289643 -0.0232806 0.0133476 -0.0299664 
-0.0262159 0.0139025 -0.029698 -0.0291038 0.015796 -0.0290264 -0.0273285 0.0156004 -0.0288065 
-0.0232859 0.0151432 -0.0298559 -0.0207097 0.0150202 -0.0294403 -0.0191693 0.0160232 -0.02965 
-0.0175536 0.0152433 -0.029585 -0.0265459 0.0171596 -0.0293105 -0.0290894 0.0175892 -0.0290316 
-0.0242911 0.0178089 -0.0296992 -0.0225013 0.0178013 -0.0295956 -0.0207227 0.0175795 -0.0295398 
-0.0189446 0.0178069 -0.0296397 -0.0285366 0.0192036 -0.0295821 -0.0267601 0.0191427 -0.0293171 
-0.0213996 0.0192059 -0.0298772 -0.0179462 0.0192043 -0.0301565 -0.029815 0.000898042 -0.0282898 
-0.0280664 0.000896324 -0.0278358 -0.0259032 0.000895024 -0.0279678 -0.0231558 0.000896066 -0.0288566 
-0.0198769 0.000911426 -0.0279894 -0.0181268 0.0014958 -0.0289451 -0.0300987 0.00259634 -0.0277757 
-0.0272464 0.00227739 -0.0286401 -0.0255058 0.00260031 -0.0283524 -0.0237384 0.00240873 -0.0280814 
-0.0215213 0.00231527 -0.0285787 -0.0227646 0.00361953 -0.0289746 -0.0177287 0.00374494 -0.0284543 
-0.0298735 0.00487733 -0.028228 -0.0240752 0.0045282 -0.0279793 -0.0222915 0.00522347 -0.0283256 
-0.0194108 0.0043729 -0.0283861 -0.0205885 0.00572969 -0.0279857 -0.0188991 0.00624917 -0.0282872 
-0.0301459 0.006631 -0.0279443 -0.0278881 0.00700291 -0.0279685 -0.0240545 0.00655844 -0.0286641 
-0.021071 0.00744074 -0.028224 -0.0271987 0.00870767 -0.0286648 -0.0254507 0.00879272 -0.0282781 
-0.01937 0.00802016 -0.0282075 -0.0303834 0.0093337 -0.0276895 -0.0286555 0.0088639 -0.0276346 
-0.0236815 0.0089752 -0.0280462 -0.0200321 0.0098417 -0.0285469 -0.0276939 0.0108449 -0.0283375 
-0.0259352 0.0107462 -0.0279879 -0.023579 0.0106825 -0.0285879 -0.021853 0.0102748 -0.0288457 
-0.0295015 0.0114854 -0.0286211 -0.0206261 0.0115284 -0.0283568 -0.0186146 0.0122432 -0.0288423 
-0.0299841 0.0131087 -0.0280152 -0.0280308 0.0125271 -0.0278168 -0.0236235 0.0134978 -0.0282089 
-0.0220498 0.0126285 -0.0281812 -0.0204932 0.0132537 -0.0288313 -0.0285353 0.0142656 -0.0282567 
-0.0267674 0.0140953 -0.0280047 -0.024854 0.0146563 -0.0288051 -0.0221035 0.0143898 -0.0285192 
-0.0190101 0.0142275 -0.0291236 -0.0301754 0.0148934 -0.0279028 -0.0234672 0.0155716 -0.0281185 
-0.0302593 0.0169521 -0.0278246 -0.0249216 0.0164493 -0.0287106 -0.0220259 0.016167 -0.0290105 
-0.0203148 0.0163482 -0.0283035 -0.0276172 0.0178001 -0.0280286 -0.0258671 0.0175653 -0.0276658 
[...]
POINT_DATA 10000
FIELD FieldData 7
id 1 10000 int
9736 7093 9378 7892 9881 8075 9791 5417 7723 
8189 9055 6746 9723 4981 6424 9534 9743 6723 
9681 9751 8964 6786 6212 8830 9343 8631 5577 
5327 9707 9199 5134 6210 9854 6493 6947 6716 
9571 8359 9850 7346 7217 7586 7124 6766 9862 
5300 7747 9100 9574 9716 9653 9614 6727 7114 
9459 6207 9189 7769 6584 5299 9012 5579 5790 
6728 5590 6696 8788 5843 6003 9752 6637 9995 
9649 9082 9798 8508 5591 9764 9465 9984 8912 
5149 9932 7449 9991 115 7984 7367 9776 6756 
5131 9527 4196 8846 9597 5475 7569 9835 8958 
8011 9595 9888 7259 9766 5288 2571 8636 7914 
9889 5955 6684 3651 9976 7575 7667 7625 9951 
7226 9987 9700 8665 5181 8678 9602 5659 9869 
8748 9367 8243 9828 7771 6463 5374 6511 5036 
9725 9255 7055 9623 9748 5087 8139 8762 9570 
6718 8101 7891 9576 6880 5618 9493 9814 5520 
9768 9562 9566 4943 6648 7444 9583 7934 8747 
1097 5848 9848 6936 8266 8531 4371 8337 5496 
212 9498 8745 8456 8776 9568 7969 8311 8720 
7950 7566 9631 5275 9667 7534 6457 9637 7593 
7360 7712 9925 6667 7937 6046 9427 5291 8517 
4963 9730 395 9762 8389 5713 7827 6353 5383 
6346 5702 7869 7117 5737 9891 7766 7038 8380 
6572 7854 8545 9907 9202 9927 5936 8853 5293 
9647 9847 5886 8084 7621 9664 6649 6110 9165 
5188 5493 8457 2361 7086 6668 7651 5565 8802 
8003 4992 6187 7029 9134 8140 9542 9722 5673 
7690 4984 9836 6051 9027 8782 7895 9515 8584 
6490 9041 9632 8059 6559 8992 6070 7901 9874 
5954 6794 8484 9964 8032 6181 9899 8823 5527 
9770 7469 8864 9207 5486 9742 9880 5378 9986 
9107 6954 5544 6811 6661 9277 9616 7420 6542 
4352 8902 7834 9127 7241 6744 7683 1155 4938 
7673 8233 719 3636 545 6616 9718 7373 7173 
8354 5688 7947 9775 5120 5942 8083 6780 6610 
7269 5812 9133 9217 8160 8535 6662 6613 9517 
6925 6281 6601 6129 9588 9104 4633 7022 7370 
6028 2950 1132 397 8707 9975 8166 7788 9464 
6433 7272 8879 8355 3601 4447 9205 8672 7798 
6522 6017 7976 6885 1618 7175 5298 9763 8296 
6893 9288 1836 5710 8986 8650 3058 5364 9634 
6738 9837 8072 6147 8726 6645 6558 5924 6959 
8731 7032 199 9089 7250 7821 7334 8506 5167 
9506 6247 5517 5574 9061 7948 6165 9206 7536 
9677 757 5037 9505 2986 8510 5114 2395 5335 
6973 6429 6024 9792 6026 7265 9786 6799 1628 
5888 5916 5552 8227 8620 8597 6990 5437 9739 
9475 6803 6675 8269 6222 7963 9266 6417 7376 
9969 6741 7494 5302 3737 7531 7761 7824 6055 
9573 5258 3832 9311 7003 7266 7595 6328 7915 
6999 8375 2184 5045 8473 7733 5499 6562 9540 
9445 8212 5199 2553 5221 5379 9598 9271 9917 
4041 8668 9923 7529 1780 2690 9878 6737 7049 
9919 6580 8592 9238 6390 8796 7016 7437 6839 
7748 3648 472 702 5826 7924 6897 7682 5425 
8624 7639 8165 6979 2745 5616 8168 5270 7641 
526 1285 9596 9720 6065 7416 7150 3000 120 
5623 8062 8827 9824 7972 3198 6278 3524 9599 
5008 4666 1733 2408 9856 7910 819 2771 964 
1025 5069 3701 5393 8817 9955 5094 4961 6426 
814 8744 1444 8022 5189 1711 3495 3923 8324 
9219 7954 9036 9733 8786 6739 9641 5385 9922 
317 5388 1845 7505 5718 9528 9593 8701 2865 
6075 5884 5626 6004 1405 6626 5085 7194 4983 
5091 3213 5371 9628 1160 7819 9591 5505 8461 
7896 7795 5644 9826 7865 9557 9124 8498 6473 
8362 8221 9416 8872 6823 8972 9245 5906 9454 
5976 9142 9960 9666 6018 6275 6870 9249 5705 
5783 7390 8523 2246 6564 8489 8358 6477 663 
1584 7278 8185 9064 5982 6659 8213 1036 7302 
882 2129 1041 9035 1084 4958 9617 9447 8675 
1448 8737 7874 6938 53 8049 5329 8451 9820 
7968 5372 7351 1445 6020 7295 6944 9257 3282 
5060 8792 5268 7792 5176 8286 8379 4268 8093 
7917 5525 2988 6694 8219 6182 7220 8197 8007 
1040 5573 5619 5690 2633 1655 7341 5999 6878 
9508 7684 6821 3427 6140 9858 5137 6093 5285 
7884 8103 6436 9384 9890 5664 9474 5742 5566 
5699 6121 6376 7935 6413 8408 547 6729 5524 
6617 5548 7956 1264 4727 5637 5171 7108 9057 
2880 9958 8205 9514 6779 7315 3780 902 6221 
7126 5839 2885 3813 7218 9993 9393 2234 6091 
9577 7945 9372 1872 4393 9749 6804 4360 3541 
4432 8202 9383 6312 7088 9672 9870 6364 5634 
653 4672 9146 9866 3544 5472 6879 9329 9657 
5833 6200 5736 3733 125 6593 8092 7721 7829 
2056 9253 6849 4285 7755 9029 6397 7070 8089 
1291 9683 5187 8547 7629 8237 8919 6339 2179 
5203 6711 7306 6761 5081 5894 938 8416 6025 
858 6118 8481 4191 4814 7893 9547 7965 7563 
651 3879 8459 5603 9956 5964 619 1743 8320 
6371 6846 9516 8306 4950 1822 110 9655 6663 
5818 9221 4429 4464 6873 6807 6882 7043 9809 
2852 7986 9077 9603 7294 8717 4390 6171 2198 
3830 8285 6420 9490 7912 3935 6693 7614 6408 
6128 9612 5201 7195 5074 3220 6230 3409 5234 
8330 8860 6388 6282 3634 6351 4955 7578 7219 
8046 6620 7840 2627 1246 7764 3676 9138 5561 
6076 4614 7809 9691 8697 5521 7292 7633 4809 
5715 7028 9078 9563 8593 8052 2586 3835 8507 
5797 7136 6924 1564 1902 6102 6290 9525 6211 
6743 1080 379 2780 9236 6859 45 3395 8371 
9066 6703 7378 4496 4732 4780 4122 7276 3310 
3695 5022 9113 9822 7982 4946 7514 2650 2741 
7447 1128 9708 6389 6704 8143 9428 9468 8419 
6297 2041 4135 1594 8069 6445 7846 6638 5663 
4681 8301 7461 3527 3732 6877 9558 2180 5130 
4415 5109 8262 8626 8630 1265 2446 3278 7763 
7472 5007 5444 2649 7694 5847 6847 6987 6708 
8780 6619 5035 7153 2472 6451 7025 893 6345 
7685 7841 4861 5940 9051 3068 760 5967 6566 
9095 1837 6541 7952 6133 7772 9269 972 4654 
8722 7631 6789 7643 8959 7089 5248 6158 6635 
1203 7774 1517 9625 9409 1349 5002 3668 7141 
9231 9160 4580 2795 4295 6483 7539 6488 1815 
8811 9779 5237 7570 9918 2137 1450 7011 718 
1887 3547 9721 6196 5210 7555 8847 2956 7523 
5692 6387 6615 4374 2357 1757 9989 9897 5939 
8957 7102 1794 5051 7009 6646 6937 8647 1893 
6350 6768 6106 8476 5937 6202 7060 5751 9605 
7530 8161 9512 3657 672 8985 9699 5813 8066 
6909 8814 2540 304 66 7215 2031 8856 5211 
9640 9279 1804 478 1622 7354 9793 6516 3166 
8208 7847 229 5933 8073 9813 5669 4142 171 
4279 3858 6348 8413 3970 3256 7356 6964 8339 
3888 7251 2663 6644 9643 8734 6515 4361 2168 
4894 8447 6753 6292 9904 7993 39 4913 925 
1476 9983 9356 8954 1432 8544 9988 5587 391 
957 5808 4097 6801 6347 6842 7978 2427 179 
7703 7369 8247 6321 6961 1353 2453 2122 8192 
6270 5743 3090 1297 2033 96 3222 2981 5854 
5049 6986 1775 5183 4321 2098 4441 6378 5831 
5259 9247 8733 3304 4386 6291 7397 8991 9727 
9541 7257 2148 3131 6199 3710 3881 9910 5569 
6063 4367 7305 4470 9901 5014 9839 5113 6341 
3263 2469 4353 3665 5451 8291 390 5905 9740 
1806 693 3799 6901 9807 8344 7130 4384 7870 
5576 7711 1630 626 7760 9678 8432 8054 6480 
8471 631 7395 5360 8714 1741 2273 228 2153 
6923 3630 9887 7340 8949 5674 3986 1455 896 
2063 4094 7842 7646 2767 7137 8602 3333 1129 
3281 4779 3375 2620 9802 6689 8254 512 9755 
6932 182 4813 3777 9015 5641 725 3312 3468 
8228 6509 6006 7955 6795 4822 3898 2378 8610 
7729 9935 9031 3285 5182 7097 6508 5740 6867 
5403 2992 3937 9167 9843 5250 8889 7106 4960 
4956 338 243 4761 2315 9892 6805 756 9660 
5331 880 4471 9818 6862 7176 8312 5958 1021 
4345 5400 3526 4058 4546 3593 6710 3913 2381 
6384 3911 9781 6600 9197 5755 6810 6898 6285 
386 2327 4974 8065 9929 8144 3971 1354 7933 
3713 7075 4277 3022 7243 3703 4183 282 8018 
6054 9025 8283 5121 747 5217 8295 1668 6774 
3488 1859 7253 2584 7281 7069 7317 7383 5759 
8885 1211 3583 6777 6824 6527 6935 969 4267 
4024 7757 9744 4060 6052 2838 3924 9180 7991 
4785 8163 3775 8061 9437 9535 7875 2749 187 
7836 5805 8944 3492 2229 616 5625 8997 6742 
895 7299 7104 3366 5263 8843 3012 1205 3260 
7681 6218 9417 7745 5287 2542 546 919 2935 
9674 5733 5898 2090 6940 2953 91 7988 8430 
8010 5015 443 35 2570 1631 3921 5810 8466 
5044 5921 365 532 9102 6423 8220 9108 3989 
4136 4516 6589 5177 9796 6832 9050 271 696 
5728 7797 8600 5266 4949 648 1522 1737 3753 
5873 9099 7231 9385 5463 845 720 8450 5126 
7238 6241 4808 2110 4325 1663 123 6150 9388 
7975 6916 4650 4302 4708 9734 8325 9159 5985 
5907 4288 1535 8666 7048 9867 9101 6215 3977 
1480 6151 8785 230 2941 1346 2742 4941 5727 
8682 8851 3555 8530 3660 362 8091 5588 5019 
4735 4882 1314 9386 5668 5294 6707 5491 6149 
5595 4418 2740 960 7144 6083 8840 3486 2854 
6217 9518 9999 8855 5683 4296 2523 4354 1317 
4603 6467 7882 188 2625 3372 61 5449 6524 
6997 1403 8679 9188 10000 454 4934 3809 4971 
7998 5947 5874 486 403 7789 8118 2463 555 
2670 1583 7511 6624 6800 6678 5031 6322 7311 
1486 8588 8501 9394 5607 4886 3551 4034 5262 
2654 5317 9463 8117 6219 9045 97 3157 2816 
8979 9670 7489 3877 2332 17 7872 9879 8937 
978 1546 3296 3349 9706 3781 2739 8730 6614 
9609 6598 1525 2613 4609 6994 2284 8035 9996 
7401 6308 1632 3290 2712 1609 6327 27 3225 
1191 8968 9636 7606 7159 1715 1591 6556 8768 
1364 1344 1435 4381 8511 6875 9900 8436 5594 
6818 3729 826 5185 7686 8727 4562 4823 5801 
3108 9122 9306 7611 6478 1178 3379 7168 8388 
1999 1454 8136 6352 8475 6965 6452 6904 8893 
420 2301 1250 5605 9093 6960 7820 9422 2487 
5432 1242 2010 8347 8848 7103 8807 5781 7422 
5998 8365 6701 3744 8704 5557 8943 3315 4137 
6176 8858 7558 4162 5277 6461 9587 583 6041 
2019 1657 1839 5600 7463 5254 8791 5005 427 
2337 3626 9039 8891 9992 5105 4306 3005 2939 
6521 6971 4322 281 3363 516 1171 7312 5078 
6657 6609 164 4561 8288 2282 5851 9611 9868 
5881 4095 2691 5320 5023 9979 9260 1924 1336 
4816 95 6104 7345 7833 1736 2997 4559 9808 
5599 4998 9665 5609 5650 556 3127 2209 3605 
8698 6156 6653 5305 4131 669 2139 8147 9682 
6366 7545 1803 440 3717 8058 5824 9760 7033 
5949 369 6236 5656 9408 8156 9441 6444 3749 
2778 2705 8977 8738 7018 8267 5700 8381 7001 
2344 1647 1199 7256 9286 8659 7496 7419 5910 
5981 52 5313 3343 9280 6124 373 3934 6320 
1224 7474 5062 5514 4194 5598 8999 9953 5761 
9695 298 3789 2219 5757 7138 8560 9876 8275 
593 1131 6533 3618 2843 5735 1648 2109 778 
2355 1834 8699 5452 7519 9357 5469 643 137 
4383 897 8226 7355 6298 8691 5714 3203 4021 
2239 794 3512 5487 1915 2543 289 10 6340 
8392 9668 9019 815 1376 8328 6623 9713 8460 
8736 7987 9467 9387 4409 2536 4533 9347 1752 
7191 9075 7518 9360 5410 5806 4245 9771 6910 
1169 8888 8056 5166 1953 2120 6148 9305 7046 
8751 6713 4978 4619 134 7627 544 9737 6192 
3779 8641 102 534 9523 2401 523 7240 5732 
7121 9068 3242 5919 468 2809 2972 8396 9226 
3828 2590 236 4185 568 9717 7916 8611 8345 
7890 3268 9235 8487 8332 3807 8241 1380 1447 
8276 4953 697 2170 4566 8743 4646 8119 6535 
9961 1225 2113 2093 6439 7860 9849 7374 291 
1947 8225 8948 5338 1466 1507 9926 9294 8878 
7073 64 8492 1838 1721 2368 1842 8314 7313 
8109 5311 7692 6374 36 3114 5391 6915 6565 
5494 6933 9407 4549 9950 8477 6981 4076 4969 
783 4319 8549 8572 7301 4526 2392 6014 5088 
7810 8280 5239 1251 3747 7087 9398 7407 8480 
8890 7509 8540 8111 5912 2805 1375 9302 6246 
5178 4092 2576 9484 1896 7858 9461 8760 7879 
2345 6027 6294 6787 9289 8231 2294 4699 6272 
9893 8024 5153 5093 5349 1565 8327 5758 8302 
4986 9009 1214 4847 6576 9840 6531 1013 6972 
9885 9994 7254 3347 3232 3968 1119 8146 976 
6982 9412 4364 3982 5900 2855 7779 9152 5095 
7671 8098 8485 3060 2587 4884 9861 8861 9149 
7666 6860 3759 4750 2417 2905 6510 9676 9531 
9063 540 9440 6567 5004 5174 4201 8950 933 
5466 3010 8558 181 5029 6160 2927 2661 1823 
9186 5945 9153 5041 6957 3514 9014 4888 3949 
7148 2117 6858 2993 1707 5142 765 843 5077 
6763 6895 8190 8142 1532 5602 8922 8030 8969 
6331 9331 5436 7065 7452 901 5564 6494 9423 
8356 2353 3316 3890 8462 8820 6307 7122 8028 
5716 246 6087 8411 7624 2250 6166 3709 3734 
2800 9004 6074 9242 119 2500 6621 9499 8300 
2623 8561 2946 3456 9819 1066 2160 6045 9230 
8323 8242 6526 3048 5648 8238 7408 7381 5394 
2676 602 8604 6323 812 9930 6127 5746 652 
1566 1778 8044 9252 9073 9635 9048 2630 445 
2065 2317 4864 249 9526 7227 2641 255 9287 
5373 6848 5003 4638 2611 7123 7966 836 5992 
3885 117 2169 9059 767 2947 9043 3476 8398 
3614 59 1968 5267 9481 7868 7196 6942 8956 
6354 5175 7944 1868 6583 8008 7521 7565 5871 
744 147 5828 5312 6303 9317 8684 3537 7513 
5033 4975 7031 2201 2496 5593 7348 5207 5584 
6733 9679 3569 8789 4651 7198 4597 1117 329 
6956 4910 5198 8918 6540 6090 584 9569 5622 
4881 7674 6089 6276 5269 3369 655 941 7486 
4483 6227 7806 6038 2601 6402 1046 3392 5260 
9344 6084 6514 309 4452 2895 968 5154 5059 
2675 5989 8708 1883 3458 8752 8349 8449 2844 
4038 8051 5172 7936 1137 5661 3209 2072 6640 
5902 8900 592 356 8689 9338 9076 1942 5660 
415 2976 7333 6325 9308 1508 1589 4635 4446 
5575 953 6057 6633 7232 7007 8554 7866 9168 
4707 4587 4860 1750 8925 5101 4724 7649 8409 
9174 7640 9424 9017 3291 2532 2259 7803 8628 
5677 7540 9829 1575 2598 7350 6773 7105 7574 
3322 8927 6726 847 558 9974 6458 6605 9111 
1792 8154 7329 5959 6243 8274 6503 2305 8132 
1213 8645 6208 87 6412 790 8519 5694 7623 
9129 8394 1805 7468 3266 1833 5546 4063 168 
5216 4504 3137 7768 7019 1175 9278 5280 589 
7802 8896 7863 7861 7693 6380 2919 6735 7155 
4203 594 2435 6863 1416 6015 9507 3017 8216 
944 5554 6830 9303 7864 775 3823 7134 3664 
2101 967 8746 7213 4479 5979 8025 3445 2262 
5709 475 7174 5135 8767 7618 5687 5150 8660 
723 3181 4019 1952 6948 6188 5513 8181 6630 
9323 6745 2612 28 7041 8654 7813 6792 462 
1342 5697 1125 3622 5448 7245 8148 5407 6190 
3297 1348 9350 8753 9208 8335 7325 7780 6233 
2383 1357 6487 5744 9496 7907 8617 9489 8971 
5962 6268 7560 7886 5857 9184 2121 6111 7981 
7599 4759 891 9928 9735 8097 416 4826 9304 
5760 3067 5785 7725 5511 8050 5231 6582 6468 
6641 8524 3805 2154 7364 7296 5340 8338 8155 
5643 5222 7020 8438 7262 4782 3418 7713 7192 
8702 6343 5750 5381 8696 1437 3368 4066 5104 
7751 1237 8464 185 2062 9487 8080 8102 7100 
7056 5840 9072 9399 963 3814 6073 8273 5879 
8088 7716 8027 3679 1188 8209 4933 1934 7970 
6482 2212 4653 1198 49 8261 8406 7552 863 
874 8634 2050 8414 7152 6831 3280 9315 7479 
8169 5550 8289 9806 6607 5225 2982 2385 6900 
9060 3586 5242 9761 9799 6301 2925 2682 966 
8239 4522 6561 5627 4543 9990 8063 3237 5729 
7135 5160 5013 6941 551 8465 4280 8838 7960 
3901 4838 8826 7096 3773 5426 5387 8970 1807 
5057 7286 6785 9154 6049 9785 6892 4333 9032 
6907 8643 8350 7393 6329 732 5849 5864 9585 
8403 9346 2731 8081 5418 5542 5324 8278 1470 
8875 6764 8784 9738 4997 1288 9121 5315 3972 
679 7977 5042 8569 5612 8039 9114 5415 4849 
3403 5039 9429 8378 9086 4512 7547 99 3556 
8361 7079 8533 9513 7845 6277 8138 2052 2028 
1790 7004 5665 5977 715 2914 6304 7418 6820 
5389 2032 323 9860 6145 5480 1157 375 4434 
3545 6186 6569 9351 4982 6012 7066 7559 9501 
8520 5855 9176 9314 2859 8479 5777 8151 7202 
7544 5138 5484 1529 5330 6262 5223 1058 4425 
7145 5343 7992 5752 6871 9359 9483 2119 3348 
9354 5739 5292 7107 5168 4274 2189 3856 5422 
4520 6223 9450 8343 5891 8953 54 8961 7244 
5973 6314 142 4738 2858 1511 6144 9190 2634 
2014 3903 9324 695 9942 7794 7247 8182 7596 
8382 5971 3037 4765 6883 7211 9033 6715 5296 
5549 7830 7222 6611 3187 6194 7630 9449 6356 
8114 1077 5232 7918 596 8455 531 392 3740 
7670 7510 8183 6355 2595 4756 4776 514 7347 
7775 5446 6627 7825 6416 3841 1528 8652 6336 
5686 8194 5706 4575 900 1020 8033 7705 5026 
7277 7165 657 1992 4751 5009 9669 7402 9404 
7532 4791 550 5202 9471 7248 2034 4797 2306 
3319 5934 7274 5375 5453 8754 9022 9341 3401 
4973 7637 1261 6407 8331 5632 41 5082 6679 
5236 9455 402 1849 8563 8542 9363 7400 2760 
7163 7190 6254 106 75 1396 4842 8882 5170 
905 8695 6539 5904 2535 5024 6180 6837 6628 
6654 6840 7363 7678 8427 6107 1791 4299 7538 
5531 6269 8210 6855 6370 988 8978 6257 7337 
5261 2204 6081 9361 8317 1389 153 7036 6441 
9283 5151 4484 3920 7744 9284 5816 8790 7710 
3191 4585 6677 9175 5657 5830 7237 1116 9456 
8793 6844 6469 6471 8936 5056 2181 4363 7410 
7303 5927 7068 5416 3474 1409 7000 7826 9227 
3716 536 498 6920 3603 6551 1478 6138 2688 
1044 5112 5738 6712 6995 7321 5515 4671 5490 
7067 5478 793 1621 2707 6330 253 6185 9030 
6113 6555 6988 7738 3800 1345 4048 4039 5071 
6326 7078 5974 7662 7434 6547 965 8996 2991 
6642 217 5772 8585 7778 5972 6135 7941 2669 
1284 5914 5282 8613 3451 2870 4359 2609 4454 
6996 6029 5984 6338 6154 4156 1669 7506 8821 
5780 6095 5336 410 940 6851 6153 7209 8290 
94 4187 1197 7679 8658 8113 6705 367 3072 
9327 4473 5832 9224 8619 7660 1115 6109 4252 
7285 8868 5671 3673 6375 8293 9845 6534 2404 
1010 768 5895 5246 6405 1400 2339 9495 3193 
9295 8440 5482 1230 3174 806 7754 5820 7557 
5658 105 5518 9823 8705 6927 6592 3582 6032 
1378 1168 170 5991 4658 8683 7181 776 3168 
3496 3287 8715 7610 7113 1913 784 7862 8071 
3815 5867 6120 7480 7731 5251 5380 453 145 
5689 8304 7039 7154 8816 6486 5459 4626 3311 
2254 4899 6772 6267 9330 5264 8082 888 8557 
7528 7453 8263 5061 8988 9333 8112 2443 6008 
267 3690 6770 6632 8721 6889 7706 1045 6415 
9396 9240 6782 6094 7207 4000 1151 8124 8516 
5402 8605 7026 3373 9053 5431 5508 9485 6119 
3162 4529 5676 8264 6881 7441 2902 157 7715 
1239 8321 2260 1827 8175 8186 2064 4407 1871 
5918 5651 835 980 1274 2151 1305 8994 6983 
4389 4515 4819 6491 2766 1523 8894 5233 9081 
1019 1121 7851 4334 2769 8315 1539 6168 8766 
6978 6379 842 6177 3571 703 7258 6815 8157 
1323 8123 422 7424 5952 6464 6691 7698 5220 
2319 3559 3947 7582 7931 8601 6888 8431 4171 
892 1773 7923 5295 4713 3128 5997 9126 691 
2903 5458 807 2303 1629 1705 4621 7696 7326 
219 4289 5721 4706 9239 71 2373 5844 7080 
9482 9214 8920 769 7409 2679 2628 9486 5685 
6245 2695 4445 4552 4644 5961 6228 9139 4897 
1981 1123 1193 4101 3869 8638 9434 5568 3498 
364 2351 4030 5356 4665 734 9349 6902 7094 
5016 5438 3608 3254 2150 1756 4121 3871 5698 
2985 2806 5540 1358 2448 3568 5307 1885 6538 
9715 1043 6232 7878 2386 950 6845 4188 986 
144 3697 5365 8173 4548 3758 2240 1429 8546 
3216 5703 5876 5778 8951 8835 3721 328 1548 
5001 7831 683 2916 8232 5489 6673 3500 2159 
3004 2913 5342 7588 916 1846 8019 2788 6489 
5803 566 621 3596 4466 327 7368 1422 4423 
3979 2932 4212 1771 6952 4792 502 7658 914 
1617 275 5938 5366 5771 3430 4541 4184 4127 
4684 4304 7913 543 16 2730 3396 3452 2534 
7 5092 3189 2537 7871 4679 1927 759 575 
1881 7739 1415 4281 4311 2295 2131 6966 7567 
507 18 8502 7327 1162 4350 5944 1800 5701 
1645 553 343 2692 728 5079 8580 3247 3720 
3652 2725 452 9470 2326 1069 4568 1544 3059 
3482 659 9292 7261 4510 3572 1402 5341 3868 
9503 3424 1471 5860 143 4009 779 1649 3024 
155 3063 3860 1209 6550 1606 2563 9268 3170 
5321 466 7604 4674 4695 4788 7442 7200 730 
3950 8340 2955 4028 4241 7823 6302 3472 1841 
932 4509 2999 5582 8153 752 1271 1781 3980 
2012 2097 7517 2554 1514 194 2698 737 1813 
1689 5306 2810 1078 1518 1459 906 4687 1960 
374 2808 1604 9293 3645 4506 519 1111 6887 
6812 4166 4144 2818 1808 2211 209 1127 7225 
6311 741 4338 1001 9026 2158 399 4313 9250 
9117 6868 2414 1120 6178 1538 1894 6612 6532 
7900 8038 6599 9369 1059 2249 1691 1676 2418 
1201 474 2753 4083 9784 637 3499 1940 5562 
1970 78 9300 5930 2402 1185 3889 141 4173 
4812 4256 4385 405 4766 1912 2615 590 7027 
1244 3328 1325 162 4275 4134 223 817 1055 
1022 3611 2637 4069 3300 777 1318 3275 2116 
2465 1491 2145 3152 2081 3244 1301 278 2648 
8529 772 929 4577 2068 3303 4677 855 3412 
1469 3764 981 3385 5571 8527 1390 2872 9291 
9418 6404 943 1703 1290 4293 1939 1075 5630 
2876 8618 7503 2393 3633 8676 4085 1412 7548 
2632 1324 3801 2671 3259 4264 3711 8834 3129 
4777 3606 3408 9301 3038 581 2565 8425 1989 
2047 3549 3961 2561 4125 295 4865 3050 2526 
6080 233 1731 5118 797 2307 947 894 1347 
263 692 419 3345 3443 5441 3969 3125 1312 
245 4040 124 4463 2001 853 4663 1462 9413 
3483 884 2384 762 1603 4839 3846 2302 4460 
2631 3018 3243 4444 4733 3776 4480 4346 4379 
1394 2017 2197 4631 2085 3487 3383 347 518 
3497 1526 613 4711 3518 8191 1788 8576 7964 
1031 3361 3928 948 3044 305 4017 4920 8930 
214 3419 2079 4202 6476 2428 4316 2471 2568 
4869 3272 5278 2331 150 3357 3725 1023 974 
2445 73 1963 4925 2908 1706 4025 3502 2290 
2558 4870 3756 4918 773 3270 1666 1202 2205 
3344 4222 7002 3355 4821 2243 2803 4879 4108 
2516 4106 3400 1136 2849 1744 1194 585 4827 
1972 1487 2162 3714 645 4500 3148 2036 2836 
1889 312 1 8859 2524 4488 384 1057 1993 
4749 4857 2748 1577 2608 4287 8422 2114 3273 
1779 796 8418 2118 2857 8911 3153 3301 348 
2177 3426 242 993 1667 1749 2890 1906 1765 
1424 2933 3045 6401 2277 13 1382 2007 2244 