# vtk DataFile Version 4.2
Generated by LIGGGHTS
ASCII
DATASET POLYDATA
POINTS 10000 float
-0.0181786 0.00091535 -0.0368715 -0.0186813 0.00262346 -0.0366083 -0.0179888 0.00670886 -0.0369536 
-0.018134 0.00849937 -0.0368838 -0.0189283 0.0118996 -0.036488 -0.0178722 0.013508 -0.0370241 
-0.0181768 0.0152742 -0.0368615 -0.0187741 0.0177853 -0.036562 -0.0213147 0.000899691 -0.0351399 
-0.0202238 0.00217915 -0.0357804 -0.0177804 0.00161848 -0.0352788 -0.0198719 0.00393179 -0.0359815 
-0.0181974 0.00379963 -0.0353359 -0.0213741 0.00438762 -0.0351044 -0.0192389 0.00558205 -0.036318 
-0.0208646 0.00651213 -0.0354162 -0.0194674 0.00750871 -0.0361978 -0.0207487 0.00915822 -0.0354762 
-0.0192706 0.00976348 -0.0363016 -0.0203593 0.011068 -0.0357158 -0.0176774 0.0103543 -0.0356894 
-0.0203208 0.0128655 -0.0357346 -0.0183664 0.01331 -0.0353209 -0.0195902 0.0144511 -0.0361306 
-0.0209724 0.0168135 -0.0353509 -0.0193691 0.0162212 -0.0359062 -0.0176638 0.0166259 -0.035493 
-0.0205582 0.0189156 -0.0355961 -0.018736 0.0192018 -0.0354567 -0.0230274 0.000905511 -0.0340543 
-0.0193718 0.000899046 -0.0348479 -0.0217231 0.00263537 -0.034896 -0.0228806 0.00398216 -0.0341543 
-0.0198032 0.00418055 -0.0342071 -0.0178979 0.00519404 -0.0341664 -0.0219151 0.0058063 -0.0341414 
-0.0196597 0.00596791 -0.0342057 -0.0232601 0.0069552 -0.033827 -0.0182949 0.006638 -0.0351503 
-0.0233367 0.00874719 -0.0338367 -0.0220134 0.00789684 -0.0347137 -0.020023 0.00781611 -0.034515 
-0.0186807 0.00935586 -0.0345829 -0.0227695 0.010932 -0.0342212 -0.0200304 0.0104135 -0.0340821 
-0.0213686 0.0120013 -0.0345701 -0.0189911 0.0117483 -0.0347042 -0.0230998 0.0126841 -0.0340008 
-0.020018 0.0134504 -0.0340687 -0.0215729 0.0139167 -0.0349837 -0.0221075 0.0156042 -0.0346533 
-0.0203364 0.0152592 -0.0347077 -0.0186605 0.016207 -0.0340609 -0.0215103 0.0177011 -0.0338909 
-0.0194736 0.0176766 -0.0348538 -0.017702 0.0177237 -0.0340838 -0.0220725 0.0192081 -0.0346799 
-0.0244909 0.000978855 -0.0330068 -0.0208942 0.000895594 -0.0333904 -0.0242091 0.00274482 -0.0332125 
-0.022427 0.00248536 -0.0332549 -0.0203834 0.00260441 -0.0335789 -0.0186493 0.00219881 -0.0338213 
-0.0184741 0.00394407 -0.0330267 -0.0250632 0.00420786 -0.032574 -0.0239576 0.00535762 -0.0334008 
-0.0207148 0.00548377 -0.0328393 -0.019661 0.00704174 -0.0327498 -0.0249311 0.00842824 -0.0326758 
-0.0212665 0.00776934 -0.0330894 -0.0183775 0.00779394 -0.0337515 -0.0216626 0.00939084 -0.0337813 
-0.0198831 0.00891676 -0.0331034 -0.0236465 0.0102085 -0.0328366 -0.0213871 0.0110171 -0.0330768 
-0.0182385 0.0107003 -0.0334609 -0.0245788 0.0117663 -0.0329404 -0.0197618 0.0118801 -0.0330926 
-0.0212895 0.0128125 -0.0329766 -0.018066 0.0126837 -0.0332287 -0.0227543 0.0137732 -0.0326214 
-0.0207772 0.0146465 -0.0329557 -0.0184834 0.0143552 -0.0338702 -0.0236445 0.0149716 -0.0336168 
-0.0221823 0.0157603 -0.0328694 -0.0248745 0.0161662 -0.0327183 -0.0234824 0.0167545 -0.0337405 
-0.020428 0.0163942 -0.0333152 -0.0245341 0.0179236 -0.0328782 -0.0191504 0.0176238 -0.0330228 
-0.0235616 0.019205 -0.0336757 -0.0219171 0.0192077 -0.032898 -0.0203833 0.0191004 -0.0338209 
-0.0186012 0.0192095 -0.0336624 -0.0261546 0.000899188 -0.0317038 -0.022384 0.000898632 -0.032388 
-0.0200488 0.000902192 -0.0315324 -0.0185783 0.000887175 -0.0325585 -0.025686 0.00259294 -0.0320897 
-0.0233179 0.00231185 -0.0317046 -0.0213203 0.00224906 -0.0318646 -0.0190949 0.00253772 -0.0321179 
-0.0214724 0.00387091 -0.0326204 -0.0264652 0.0042169 -0.0314468 -0.0232482 0.00403632 -0.0324071 
-0.0192739 0.00500024 -0.03182 -0.0262486 0.00599218 -0.0316344 -0.0243855 0.00607166 -0.0318105 
-0.0225498 0.00599266 -0.0324677 -0.0179754 0.00633657 -0.0327813 -0.0234443 0.00756326 -0.0321485 
-0.0210299 0.00676334 -0.0316216 -0.0262688 0.00786991 -0.0316131 -0.0209904 0.00969969 -0.0319322 
-0.018182 0.00913668 -0.0325765 -0.0253719 0.010138 -0.0323335 -0.0193588 0.010438 -0.0320825 
-0.0261049 0.0116725 -0.0317438 -0.022853 0.0118353 -0.0324401 -0.0205703 0.0116684 -0.0315087 
-0.0187175 0.0121317 -0.0316569 -0.0254597 0.0132684 -0.0322709 -0.0238683 0.0129621 -0.0314746 
-0.0194282 0.0136093 -0.0323804 -0.0243192 0.0146274 -0.0319751 -0.0177228 0.0141676 -0.0322643 
-0.0262893 0.0150509 -0.0316015 -0.0191651 0.015374 -0.0325577 -0.0175012 0.0159915 -0.032103 
-0.0234169 0.0162365 -0.0316567 -0.0212166 0.016333 -0.0314677 -0.0262723 0.0174961 -0.0316091 
-0.022577 0.0176074 -0.0324515 -0.0207637 0.0178687 -0.0322717 -0.025584 0.0192011 -0.0321657 
-0.0235271 0.0190953 -0.0318832 -0.0195732 0.0192045 -0.0321536 -0.0176241 0.0191923 -0.0321535 
-0.0276098 0.000900174 -0.0304436 -0.024315 0.000897651 -0.0312189 -0.0216638 0.000886311 -0.0307536 
-0.0183 0.00089914 -0.0307843 -0.0270814 0.00255239 -0.0309252 -0.0254115 0.00206115 -0.0304001 
-0.0279725 0.00388546 -0.0301183 -0.0245067 0.00347751 -0.0310273 -0.0222223 0.00357878 -0.0310131 
-0.020281 0.00359656 -0.0312943 -0.0178144 0.00391108 -0.0313539 -0.0251869 0.00507012 -0.0305133 
-0.0234286 0.00489919 -0.0308466 -0.0212497 0.00508273 -0.0310533 -0.0176276 0.00568787 -0.0311412 
-0.0274166 0.00690715 -0.0306216 -0.0252375 0.00690485 -0.0304687 -0.0225574 0.00646694 -0.0307214 
-0.0192835 0.00661778 -0.0310484 -0.0252077 0.00869507 -0.0304224 -0.0233715 0.00804293 -0.0304187 
-0.0217246 0.00831566 -0.031072 -0.0199636 0.00823713 -0.0314395 -0.0178995 0.00766902 -0.0314983 
-0.0270115 0.00938547 -0.0309888 -0.0238512 0.00960136 -0.0311645 -0.0185444 0.00941861 -0.030846 
-0.0276107 0.0109848 -0.0304442 -0.0257312 0.0104014 -0.0302477 -0.0221214 0.0108406 -0.0311403 
-0.0192546 0.0110038 -0.0303795 -0.0243956 0.0113054 -0.0310383 -0.0265751 0.0131871 -0.0308722 
-0.0214157 0.0132273 -0.0312345 -0.0176965 0.0132698 -0.0307157 -0.0280754 0.0139723 -0.0300257 
-0.0249732 0.0137718 -0.0303161 -0.0202272 0.0147644 -0.031249 -0.0277776 0.0158232 -0.0302965 
-0.0249041 0.0158059 -0.0307498 -0.0223108 0.0148813 -0.0312908 -0.018492 0.0150689 -0.030922 
-0.019463 0.0165823 -0.0308559 -0.0273512 0.0176543 -0.0301868 -0.0245437 0.0175249 -0.0311289 
-0.0228053 0.0176045 -0.0306767 -0.0207687 0.0177559 -0.0304644 -0.0181326 0.0175807 -0.0315396 
-0.0269737 0.0192023 -0.0310164 -0.0247207 0.0192074 -0.0305455 -0.0217231 0.0191643 -0.0311168 
-0.019218 0.0186683 -0.0304806 -0.0289262 0.000897567 -0.0291997 -0.0255422 0.000891764 -0.0290497 
-0.023802 0.000900652 -0.0294951 -0.0197689 0.00089255 -0.0297571 -0.0289378 0.00269333 -0.0291871 
-0.0269197 0.00203097 -0.0292178 -0.0226349 0.00217485 -0.0299849 -0.020785 0.00232093 -0.0301359 
-0.0189935 0.00249737 -0.030331 -0.026143 0.0035852 -0.0297956 -0.0230015 0.00386852 -0.0294216 
-0.021009 0.00402307 -0.0296234 -0.0246978 0.00426819 -0.0289804 -0.0190947 0.00432961 -0.0301631 
-0.028529 0.00594296 -0.0295893 -0.0268885 0.00531253 -0.0299839 -0.025627 0.00606579 -0.0289361 
-0.0233923 0.00562565 -0.0292122 -0.0205992 0.00627055 -0.0298783 -0.0184841 0.00595713 -0.0295823 
-0.027051 0.00716274 -0.0288857 -0.0283749 0.00814328 -0.0297347 -0.0208445 0.00801413 -0.0295345 
-0.0190731 0.00798703 -0.0298941 -0.0294526 0.00911581 -0.0286736 -0.026801 0.00889447 -0.0292806 
-0.0239559 0.00969894 -0.0293745 -0.0222245 0.0094187 -0.0297511 -0.0203167 0.00956037 -0.0302735 
-0.0280014 0.0101669 -0.0288702 -0.0228294 0.0110913 -0.0295168 -0.0209529 0.0111796 -0.0298235 
-0.0289473 0.0116617 -0.0291876 -0.0273476 0.0124424 -0.0294341 -0.0255491 0.0121382 -0.0298358 
-0.017527 0.0114632 -0.0302005 -0.0226631 0.0128095 -0.0300144 -0.0210688 0.0128102 -0.0290919 
-0.0197494 0.0127326 -0.0303128 -0.02633 0.0148412 -0.0298272 -0.0234214 0.0145757 -0.0299196 
-0.0213211 0.0143998 -0.0298803 -0.0195392 0.0143836 -0.0296324 -0.0289845 0.0152169 -0.0291131 
-0.0250409 0.0156596 -0.0288891 -0.0185835 0.01598 -0.0293825 -0.0288258 0.0171357 -0.0293074 
-0.0267898 0.0162919 -0.0288717 -0.0235725 0.0163431 -0.0296605 -0.0211881 0.0161764 -0.0296839 
-0.0256383 0.0173769 -0.0297159 -0.0220061 0.0177027 -0.0290731 -0.0178828 0.0178065 -0.0296396 
-0.0282997 0.0191992 -0.0298038 -0.026131 0.0192035 -0.0294343 -0.0230439 0.0192037 -0.0299015 
-0.0210825 0.0192013 -0.0294404 -0.030189 0.00089729 -0.0278892 -0.0275929 0.000899519 -0.0279929 
-0.0241581 0.000896991 -0.0277158 -0.0213886 0.000899403 -0.0289878 -0.0181447 0.000895112 -0.0289892 
-0.0254406 0.00260824 -0.0283775 -0.0236623 0.00241614 -0.0285377 -0.0216603 0.00271327 -0.0285788 
-0.0196171 0.0023053 -0.0286646 -0.0173922 0.00252088 -0.0289159 -0.0305452 0.0033639 -0.0274984 
-0.0185298 0.00385297 -0.0285257 -0.0296847 0.00520503 -0.0284297 -0.0281875 0.00411015 -0.0283555 
-0.0264648 0.00461888 -0.0282847 -0.0198639 0.00506588 -0.028722 -0.0277713 0.00580874 -0.0279565 
-0.0216753 0.00542869 -0.0287109 -0.0291373 0.00716969 -0.0284237 -0.0236821 0.00734726 -0.028798 
-0.0213553 0.007203 -0.0280208 -0.0196114 0.00682032 -0.0284833 -0.0173693 0.00731003 -0.0291838 
-0.0304537 0.00807885 -0.0276033 -0.027909 0.00863401 -0.0278927 -0.0253979 0.00786821 -0.0288386 
-0.0225005 0.00857705 -0.0281909 -0.0197748 0.00857438 -0.0281798 -0.0255931 0.00997294 -0.0285097 
-0.0209344 0.00987991 -0.0285868 -0.0188651 0.0097909 -0.0291246 -0.0300106 0.0107226 -0.0280806 
-0.0224842 0.0103311 -0.0277965 -0.0177224 0.0110157 -0.0284688 -0.0265139 0.0114786 -0.0281657 
-0.0243575 0.0112729 -0.0286004 -0.022663 0.0121964 -0.028111 -0.0195026 0.0114567 -0.0286588 
-0.0285537 0.013311 -0.0284279 -0.0257782 0.0135339 -0.0287326 -0.0240652 0.0130332 -0.0289168 
-0.019573 0.0131854 -0.0281624 -0.0180758 0.0127277 -0.0290513 -0.0300819 0.014158 -0.0280046 
-0.0272338 0.0145188 -0.0283164 -0.0224442 0.0139237 -0.0285588 -0.0206447 0.0146303 -0.0282383 
-0.0182162 0.0145044 -0.0284239 -0.028325 0.015699 -0.0275195 -0.0234889 0.0157058 -0.0279824 
-0.0300136 0.0162628 -0.0280733 -0.0214256 0.0162105 -0.0279086 -0.0186034 0.0172352 -0.028104 
-0.0287592 0.0174454 -0.0275475 -0.0274824 0.018266 -0.0285045 -0.0257691 0.0182691 -0.0279486 
[...]
POINT_DATA 10000
FIELD FieldData 7
id 1 10000 int
2930 4883 3829 3240 1489 4300 4800 1461 1722 
3485 286 3169 4895 2943 1005 4698 259 2636 
3095 1316 2231 1904 4130 2829 1218 2519 2245 
140 3158 2893 4794 4246 3589 4755 292 4377 
4555 339 2208 4027 1686 736 3715 1050 4402 
708 4035 3631 80 3065 2409 2967 4741 2581 
1475 8911 2249 4160 753 3960 4155 1276 2277 
2908 2103 4330 3142 1785 4205 2071 1286 408 
2382 3265 2842 935 2607 2238 3576 3803 459 
1662 2475 3946 2723 4028 2197 3672 2664 3910 
3979 4233 3434 706 4697 3849 1906 6476 1784 
2236 4263 2331 763 149 169 3756 2783 939 
4773 4870 2354 3494 4904 3423 3400 1271 1652 
1345 2702 2162 1 804 3144 4799 1824 1057 
3148 1452 796 4494 3438 988 2336 109 2379 
2286 1980 3426 3806 3106 1765 2632 3454 3073 
4166 2274 2199 496 1940 1372 4686 4918 4173 
1123 3724 1202 2307 4905 3453 47 1739 2243 
564 3358 245 1530 664 3386 1603 3234 2421 
334 8529 4512 3470 1993 4385 2321 4876 2085 
613 1453 4601 3763 3153 1031 278 4109 8930 
8618 2868 4804 1424 3606 3579 4511 13 2428 
4777 1371 2047 974 3783 3050 638 163 2667 
1706 947 2615 4258 2874 2803 419 4626 450 
4215 479 585 2394 1136 853 3334 434 3327 
2081 2524 772 8859 4831 4749 4379 2068 3397 
3207 9293 803 1182 4711 5571 3159 3361 7225 
4067 2697 3824 7503 4179 1382 1324 4316 6599 
133 2753 2565 474 5001 2851 5930 3147 2635 
37 4812 3696 2526 4217 4879 162 1422 5321 
3663 401 1065 3345 4792 4391 817 3300 1157 
1055 1981 3298 3714 2097 777 809 4857 2631 
4030 3189 4489 4093 3303 1415 7094 3130 3645 
4909 6812 553 1173 2360 3231 3301 6311 4787 
2786 2414 6868 204 2568 2471 9369 5778 8951 
2102 3837 4510 7261 8431 8082 3549 2402 4660 
4435 1661 1649 3500 2443 4089 773 4256 466 
566 71 2462 4153 2205 894 7177 4040 8340 
5366 3902 4031 4663 4445 8605 4827 3244 154 
2451 645 1813 1318 4304 1230 1425 1177 1960 
2537 3452 3487 2548 4801 2114 5307 7851 3342 
174 998 3518 741 4204 7878 6379 242 348 
214 5365 8123 283 3801 1069 8835 9201 3352 
150 4083 7698 2007 3868 1642 928 2903 9438 
4037 1729 4485 1209 4423 3024 977 7118 6705 
2955 4406 2411 2275 8916 4811 4108 769 2232 
3410 124 4852 1841 502 1533 1903 244 157 
5416 3243 2292 606 2748 751 176 3365 973 
1394 4281 2640 7752 4819 447 7652 1390 1162 
4112 3245 1856 3928 943 4343 3394 650 4002 
159 1120 8173 7230 8552 2933 1639 1206 1490 
6431 2736 3725 3357 646 3478 7497 5970 7953 
3857 2149 1277 5822 5563 4149 2280 2961 3344 
3443 2922 5396 4072 1481 3040 3767 3915 605 
3905 4332 3638 1462 5671 7431 7601 1607 3786 
1468 7204 910 2420 1301 1440 4193 2699 9062 
2203 4784 3018 5799 4437 4677 2751 3475 3904 
5720 931 4506 4338 4 5693 2060 737 8038 
527 2592 2864 2393 1150 8229 5917 1436 3419 
3633 2413 9504 6229 3878 7456 6203 6966 2558 
8897 6889 7337 9117 6232 3472 6317 8920 9011 
6888 4897 7790 691 3129 6095 26 8863 5876 
8868 1166 3578 1114 7717 384 3236 3141 6970 
1559 3683 3860 6486 8580 7964 4865 4460 5380 
1312 2107 7980 2425 1912 6902 4096 4069 3267 
7548 5341 269 2248 1325 7475 4017 2384 2035 
8527 766 5562 1604 6822 8422 2890 692 3565 
4820 1884 9131 92 4461 1072 5278 1666 3156 
2714 1194 797 6404 871 2481 1879 3957 5841 
6634 6835 280 1720 2642 5047 3952 3362 2662 
1426 3151 3433 4988 7697 4025 2380 3990 4497 
8813 4629 226 2835 6560 1195 5147 2924 2619 
3289 3792 349 237 7620 4349 4606 4084 1738 
2367 3179 1130 1590 1983 1971 5672 7850 7856 
332 4049 1689 306 5503 5995 2017 2556 1122 
5089 9125 1363 3323 2389 1944 1616 2763 5136 
533 4636 2096 7482 1569 2450 6447 3393 3516 
4760 2804 4234 3055 3754 5809 5908 2533 2388 
3461 2225 2696 8981 4991 495 4373 2605 1294 
2157 1988 5506 3371 522 8370 4524 4911 8966 
3042 3437 2077 5866 6702 6890 1028 675 2888 
610 9006 4718 1377 4764 8795 4355 7553 1625 
3388 1309 2928 2322 2104 1505 609 8662 8470 
4525 227 3955 2221 1333 2257 1009 7718 4874 
2458 3294 7206 3505 861 4824 2618 570 2312 
4907 1613 4825 6963 8989 352 4656 3252 542 
6313 3598 2674 1275 6781 8534 4455 1958 4499 
4634 1734 4833 4414 3817 717 7634 7807 1071 
3099 8134 1973 5075 9177 2173 1619 1272 6687 
5214 4944 7714 3405 791 3069 8804 2020 7072 
6157 2807 2503 1103 490 9488 9319 4022 1640 
1809 2459 2604 7045 3993 4829 220 3984 7749 
5064 3853 2200 3602 5454 7997 9215 8474 449 
937 8939 9414 2562 1374 2978 4220 6622 3150 
3133 3600 5960 5163 8086 2430 1223 4891 5240 
9443 3976 3391 8100 3859 4146 2416 3580 8521 
6097 8735 1407 4873 1139 4348 5768 9352 2030 
4218 2721 7994 624 3948 359 388 1181 7609 
954 4462 86 4126 3641 279 1015 6650 3623 
885 9321 2596 6625 4119 8284 1664 3399 949 
654 4175 7688 3307 341 3667 4746 8799 1434 
2186 7786 9210 4128 930 130 7556 6594 1576 
4405 23 6332 701 6400 9000 4410 4661 1602 
2152 7571 4099 2124 437 5456 8845 6377 4260 
1101 1340 3536 3132 1406 7343 857 2906 322 
2887 2811 2452 4057 316 1702 8674 5553 869 
4803 748 1787 4742 5164 5334 8725 524 3429 
4082 1012 7430 6122 3299 2948 2444 8360 9018 
1847 4648 3639 414 9510 252 1557 487 5798 
4225 3051 2802 3702 7414 3880 1228 1016 1555 
4180 5589 2161 6714 3599 1701 2656 7719 3874 
9091 2106 3936 2242 3994 1328 7332 6656 1341 
995 1916 1990 4798 4560 5218 2728 5063 1710 
2873 1876 665 5779 5931 3821 7050 5773 1032 
4571 1183 8880 1759 9366 2582 3893 2349 4376 
8391 9325 8892 257 3906 4419 6448 5994 5145 
1079 2606 302 827 8661 3649 4440 5725 5691 
834 2123 9 7035 7071 8825 3772 3079 2371 
1113 3370 6498 5684 8609 1098 4004 1651 3212 
1945 1515 8495 4150 617 1817 5555 6720 4721 
4164 3891 2447 4964 4514 5654 8635 9397 3194 
2755 2138 4116 6836 3997 7362 7990 2140 955 
1339 451 6362 5238 5492 2921 3965 2100 2832 
9194 8995 991 3070 126 491 5083 4501 4244 
726 1472 2658 4987 8556 7214 2087 3435 3075 
2310 513 5195 7006 729 460 3761 7082 8757 
7342 1145 4242 1398 380 7805 2971 6096 8587 
6039 8973 2134 1753 2473 2826 4652 4087 9196 
6518 6854 5273 3192 4468 2785 1070 3146 6286 
6206 264 2856 387 4449 5156 3653 1370 5889 
2861 2147 922 74 1558 2476 5655 6139 4426 
2092 2089 3654 8170 1140 3054 6778 7543 1596 
3047 3309 371 3481 5498 9435 6838 2011 4688 
2514 6918 9241 4649 1361 6817 8297 8387 1761 
4086 3983 4340 4818 6072 5707 2099 4793 4273 
4416 7999 5745 6499 7162 8309 4745 1064 1365 
970 6167 8096 6040 461 2974 987 4616 394 
1180 4282 1776 3519 7925 5915 6758 1337 476 
3918 3235 722 5877 1571 5996 215 2593 3973 
3592 1360 256 1967 9137 1106 1537 4840 1863 
6629 1074 1212 101 2266 3404 6143 6037 2187 
4645 2507 4855 7255 6365 4368 2600 9115 3098 
6141 8179 3113 1248 161 8145 5073 5530 1189 
3587 3003 1100 438 6273 7938 7619 7728 3870 
1006 1267 3525 685 7704 5528 1414 5 4517 
3939 484 2403 8901 6240 8935 990 3420 1096 
5497 15 6950 7741 3822 1946 2812 5465 2399 
21 4213 6519 2076 4691 4709 1857 4878 152 
8656 2329 1900 2735 4062 6928 7426 32 4270 
1825 7092 6757 2901 1933 3479 2220 4778 7501 
8497 6931 432 3692 3684 136 800 6597 7330 
4657 2539 3163 4795 3895 2130 6685 5197 8248 
6967 670 1102 482 7212 8453 1207 4436 3530 
7928 6709 7392 5585 3293 1774 3698 4590 8162 
9049 2839 4458 1369 3517 4433 6462 3590 7061 
7059 2566 4705 3620 3694 5794 8303 8926 6224 
3546 2359 463 1579 9135 6833 3765 6670 7427 
7396 1460 2929 1580 8869 6011 5547 9436 3257 
333 7687 4227 4490 3680 4979 1979 8402 6205 
3308 4579 1623 2083 3865 4643 1519 1446 5050 
8775 5522 787 3002 3686 1561 5370 3748 7044 
8015 6507 7454 1922 2687 3103 1635 3535 2265 
6108 2684 2889 731 4632 7147 7289 1330 1588 
8724 4563 8107 7095 3013 4578 3597 3850 5704 
1874 4725 1231 2188 6000 7249 5304 2125 3538 
4655 3862 2144 5476 8633 2659 1865 9162 8910 
1326 5043 3205 8984 6009 6047 2871 9509 7284 
3271 431 8923 1568 2733 8938 1718 2374 2995 
2761 6226 5502 4174 3577 7765 8429 8866 6497 
9273 7564 839 3462 1704 4015 8206 8801 8448 
2006 2937 1997 2845 4169 5581 1929 4114 3097 
3071 5611 4937 8898 4673 745 3199 180 3503 
8246 5882 8249 4954 603 1755 1890 1497 6759 
6962 642 2193 3944 4903 8832 6053 5357 1828 
959 3223 3533 3421 7270 8417 7524 88 1083 
3014 6500 2794 1766 2439 1134 7387 9211 8755 
4584 1257 3411 3613 4927 5975 6946 2335 4744 
684 5537 9342 4292 1680 2009 6595 7657 273 
9034 924 7465 7307 5252 8842 1675 3855 4229 
816 4326 870 9123 8573 8908 6092 5054 1192 
3313 2051 7158 5245 5012 7898 6690 8131 3790 
509 3840 1156 266 3629 3173 1067 9010 6183 
1840 7867 8412 9310 139 3728 2477 14 8333 
1255 2164 1536 7905 8929 8616 8993 1520 849 
3094 9087 5461 270 4262 3919 2216 5621 5629 
8326 6237 8426 3847 1926 238 5350 9381 5337 
1677 4832 2088 272 4908 810 8454 7995 4307 
4859 1994 3422 2048 5580 952 3009 423 510 
7985 1399 9358 5395 8115 1236 184 3825 2799 
2270 907 4170 7127 8187 1938 3219 1974 8565 
5724 7382 1516 4689 761 8960 5323 7550 7527 
1477 1821 608 441 2069 9023 8271 9476 1553 
1552 211 4564 671 6747 8149 5339 8067 6722 
6005 3981 3508 4011 3563 8329 8614 483 1948 
1049 9001 7546 7499 6857 1614 3501 1687 781 
7228 3464 3506 42 4508 1697 330 5897 7971 
8244 6639 4669 3557 8522 5829 5642 5719 9258 
2588 4747 8564 6682 6293 9067 3027 321 2136 
1844 2764 5538 9106 2610 623 771 360 2546 
8693 2564 5244 4226 351 3573 688 1029 6253 
8980 6643 5447 4251 4919 997 7516 7470 5680 
9016 1087 2958 2996 2959 2968 5110 6036 3575 
3609 3670 2617 7252 9218 5215 5878 1256 705 
7083 6891 2163 2210 5957 5788 8955 7271 6001 
3876 989 208 4007 6263 6664 6255 8478 8176 
6953 2891 1976 1404 4774 6686 5911 8703 4682 
4600 4912 850 5011 7030 8222 3899 2230 2938 
2538 2575 4318 1474 3134 595 6749 6434 7880 
4235 4922 5124 1270 9312 8591 3659 68 4752 
6876 9169 1018 2479 3543 1593 3188 344 7109 
9103 3164 1969 3239 2720 2762 8539 7275 1624 
3689 1306 2509 1562 355 5988 7013 63 4565 
85 8298 5058 4163 6117 5028 6191 1419 2819 
714 1420 382 1379 5200 6545 421 3787 5756 
5477 9058 4113 3286 9276 7476 8732 4532 934 
2206 511 860 5046 9024 1795 1014 3092 2311 
7490 7293 7205 326 311 2182 4717 4850 3387 
7677 7816 5883 254 4553 4482 1082 2869 6475 
5144 9040 5717 4214 3020 3007 1985 1852 4770 
8805 6249 6939 8681 4369 2002 6161 6655 8809 
4016 2003 7921 6783 5070 5696 6383 644 3655 
2853 8468 1595 6086 8199 1977 2255 3218 4070 
3894 7817 5950 2309 2574 3292 591 3111 5139 
8915 2366 635 1076 1393 7903 8443 1321 4219 
290 4344 3750 5000 8500 681 4871 3177 1269 
1311 3640 8595 5863 3107 1793 1112 8 1235 
5675 7909 2505 3389 3093 3441 6214 202 7405 
22 3074 1315 9446 6071 6825 8836 1335 1421 
1949 8023 9216 8218 3632 2940 3681 529 2923 
8769 7957 4456 3043 250 2328 5776 6658 2281 
4486 1943 1911 7464 7598 9296 2218 1401 4243 
1512 4341 877 6064 9368 2678 4602 7324 8942 
8870 3201 114 3766 3432 6886 4594 6248 7962 
4530 4844 1957 8386 3705 4081 1030 4400 2340 
2827 3224 3354 5412 8525 5247 5507 4443 1061 
5762 7304 2133 3838 3959 293 704 2862 8399 
1107 961 3326 8483 8090 6671 9172 1814 2422 
216 2283 5868 630 2709 2550 2 4613 4887 
5852 9020 2734 4167 301 4071 3992 5754 8488 
4315 2966 5823 9380 6220 2318 4008 2711 3210 
1861 8655 8001 7459 1217 2434 3669 34 2055 
4240 2387 9193 8164 2491 3253 3975 2622 8178 
7320 9405 7017 5796 4519 4476 4120 9209 1004 
1496 8987 5289 7448 2044 1366 2267 4181 7054 
5679 8941 3552 1104 1164 898 6523 6695 6808 
1767 946 2936 5128 8640 2703 3539 4091 4176 
1732 1109 3195 3845 5533 4722 2531 1091 2644 
103 8341 8594 1513 4228 100 1796 2436 4599 
5615 8017 4719 554 2529 5485 7182 8567 4413 
2998 4739 3320 2313 9433 7613 886 4740 2717 
430 7085 5670 5376 1273 743 6604 83 4029 
79 3793 6790 4875 7010 7316 4880 1959 4678 
8709 629 2364 2969 1411 918 4607 5551 6913 
1768 3932 3774 350 3160 7339 5098 8749 2989 
1233 1204 2291 222 1819 1063 3864 9144 7776 
3246 3647 1964 3469 8621 2793 9225 1764 8770 
5169 5194 8318 8806 3570 1601 4068 2141 6137 
4970 118 1975 1221 4045 406 6414 7338 7178 
5066 8555 1307 300 3329 2397 8932 7853 4748 
867 2517 656 7929 1600 2917 3978 3757 353 
6631 6579 6435 3625 3914 971 4404 5271 6606 
5512 1918 1954 477 166 8917 8837 4667 3493 
822 1215 597 2358 586 5032 6466 1068 2700 
2528 813 1801 8740 7533 6184 1678 2078 4573 
363 5748 5344 1577 3811 4503 25 3455 318 
3338 7037 5734 370 4286 108 915 3196 5399 
7932 1892 4540 4714 8420 2406 2881 3126 4588 
2877 2289 6548 6784 1867 4726 3015 1671 1186 
335 5631 8797 7911 221 1392 3116 1509 3288 
6578 4805 1746 89 3834 2668 189 4216 8667 
9150 1502 3693 2426 7412 7591 1745 1681 2715 
4366 2343 8053 1259 3802 625 4730 927 2352 
4239 7473 7323 4337 1037 2624 3819 8694 4598 
2165 2801 1124 530 7653 8509 690 673 1003 
6428 5649 7701 5560 1427 3892 2023 7801 1598 
5535 5027 3656 1359 2489 3922 1388 6665 9182 
5534 2530 4347 2791 1387 205 2190 4976 909 
9680 2549 4294 2480 1527 1135 2787 3324 3091 
3283 1541 3353 3796 7487 200 1266 3407 2944 
7844 6030 2884 1038 4853 4692 2892 639 1093 
2227 5712 1891 7605 4845 4554 4073 3185 878 
1905 709 6864 4139 9466 4680 2485 111 1494 
6334 6061 3215 3760 4421 3553 3584 2341 225 
1556 2834 7562 1864 5235 4763 5314 4392 2342 
1395 668 8750 6406 3025 6557 503 1848 4856 
2594 4397 2911 3755 8401 4250 662 1279 4834 
3230 4055 6391 6425 381 4033 19 9158 2647 
4370 1658 7561 4737 4968 6456 8133 733 913 
2931 1921 3511 2704 2744 7617 6765 4664 3873 
6525 1355 1322 1017 2951 582 3951 9163 8014 
6688 846 2176 7160 9244 3956 3816 1694 2483 
2018 2866 1597 622 2886 8094 5890 7384 2666 
426 4052 4006 601 4284 2551 1292 607 2979 
12 1397 2375 7023 5556 8259 4596 6976 8078 
1869 1962 1343 7542 798 3839 7812 9096 5297 
3736 4642 285 9181 5633 3745 354 8854 1438 
1970 1059 3172 8105 9339 5792 2297 4862 5559 
7668 315 7525 3 3931 6485 4977 2883 5821 
4869 5442 789 2501 3607 4230 3035 284 3138 
1500 3560 1627 2244 3036 2713 9374 9390 6934 
4716 4605 3675 5825 2320 3325 7951 8308 4696 
3567 2915 268 6197 3390 3056 2863 4457 6813 
8719 4806 2054 7090 8909 811 3032 4851 1190 
1855 1081 2962 4830 4056 8844 55 1464 7724 
2433 4972 4500 1243 455 3408 9400 2849 8551 
5827 5165 9270 2445 1347 4630 3273 2177 1703 
8313 2867 2013 2304 4703 875 4365 3833 3966 
2841 1219 4051 1373 721 210 4924 2112 3414 
2222 1612 2454 2484 4396 3332 2024 633 3184 
710 4527 1582 4259 844 1062 1820 3671 2167 
4772 261 1811 1961 4308 4276 3704 4253 8728 
2716 5224 699 2442 2513 749 3284 424 2478 
1146 2646 4411 2685 3685 7411 3738 823 4247 
6968 197 1866 1033 3897 2437 3064 4901 8334 
4935 2370 1777 303 1991 8673 2438 852 6398 
1690 6492 4417 3339 1531 712 2264 3831 4152 
700 3574 2488 206 1418 1504 1717 2194 1854 
470 6359 562 2689 4143 3610 958 4266 1226 
1996 1299 331 1329 1086 4848 3459 65 2686 
2217 3262 4535 862 2166 40 2775 5040 4481 
3062 4427 2599 2396 9432 2677 2372 2171 4382 
985 2015 458 471 3848 138 412 2334 4199 
3820 385 1521 81 396 299 2073 4168 1153 
1727 4595 2214 3818 1176 7602 1966 854 2142 
3346 1672 2983 984 8904 561 3444 3204 641 
3522 4712 1716 979 345 2314 4103 4495 8883 
1442 1570 3727 2724 574 276 3104 337 8077 
508 828 4357 2258 4314 1696 132 3594 3842 
4569 287 1683 2773 4358 687 6225 1293 2756 
2790 1510 3118 5986 4422 4647 320 1611 1499 
4401 2597 3083 3258 1479 3439 4783 4704 6700 
4362 4753 3933 4518 2655 3100 4854 3081 2718 
1684 3708 9047 485 3084 680 2910 57 376 
3008 2557 3249 1467 3101 3528 2429 4715 1740 
727 3810 128 2105 3882 3604 1798 5856 1035 
4929 2492 3449 1210 2091 2075 7676 661 4576 
3722 2115 2005 3554 2256 107 127 4683 3867 
4412 56 1408 3916 1457 1011 2347 908 1002 
3337 1222 6829 11 2899 1350 1428 2251 4206 
3089 3276 2585 3340 2521 2049 1240 2324 792 
3739 3529 2897 4088 3908 389 3621 2820 865 
5865 1413 3465 2398 3962 3416 2135 3447 4420 
2768 4320 4936 9883 4080 3778 4249 5846 3770 
2132 4231 3743 3635 4639 383 3221 611 3139 
1935 404 1147 4023 1770 571 2567 1909 425 
2410 3001 840 8528 203 1758 2108 4915 1870 
4044 4625 2377 1234 2545 505 5473 9451 2737 
1165 3794 20 6403 8281 4283 1332 433 313 
6991 5767 2934 2156 112 1713 2276 1042 9711 
951 689 4567 3182 1449 442 539 1812 634 
3912 5146 6422 1754 2183 2515 2474 4317 3612 
160 1931 1610 4110 1581 1735 372 4493 7756 
3171 2747 3167 3028 1048 2743 2502 1391 3723 
1287 457 1641 9267 3318 4593 4190 738 1133 
2468 2770 4628 1919 2701 2365 4928 186 2722 
6056 3941 3241 4356 2525 4297 2482 2348 9313 
1709 4767 2822 3480 3406 4723 4107 2268 7358 
4926 4207 3077 716 368 2021 3021 274 920 
818 1810 3295 521 1417 2798 6239 7814 2419 
3804 2316 9594 8967 2490 4221 3154 1310 676 
7750 2066 1485 1187 62 1216 418 1295 2195 
4769 2878 525 4487 2660 4310 90 499 9008 
6418 4781 3746 881 3331 5133 1034 1748 2757 
4786 3561 996 1320 3943 3415 4424 4064 4622 
3797 1665 4513 3798 2449 3489 4604 2299 8538 
1300 3507 1152 2022 1039 3771 1313 1653 8895 
1714 992 1053 2288 1878 2308 308 1783 8852 
2710 1501 4914 1782 2263 1897 3229 2758 820 
3053 4053 2362 2084 4916 9401 5433 9275 2994 
435 2591 4430 1574 6474 9692 4700 917 2578 
4810 4329 3034 6980 1712 2261 2213 2797 1907 
3457 3637 4846 3730 8400 8871 1551 9371 4271 
1984 4610 3998 780 1605 9170 9589 4148 58 
2376 707 1331 4305 9164 4474 604 4906 501 
9220 1578 2643 3088 4459 5111 1708 5956 4863 
3628 1917 2074 3460 1914 3595 93 1465 1923 
2510 2233 377 3688 4539 77 4012 4047 411 
2824 1615 632 1280 921 3110 830 841 4387 
1092 3650 2043 7235 4802 3963 3490 4339 4336 
2847 8223 4236 3909 129 1334 4472 1585 3039 
7450 9624 4375 3509 3208 4399 2875 2825 310 
1899 8582 9622 5885 3741 6502 1368 2638 1245 
4232 6955 2616 9630 9875 7156 3666 4890 3080 
2727 4965 838 2527 3384 3336 4054 9232 7876 
9426 4507 2882 3052 1850 5440 2840 7353 5243 
2680 788 4298 30 193 3360 4478 627 5086 
8974 3190 5653 537 2977 1126 9519 7885 9415 
9195 2555 3049 548 7590 2987 4528 1384 3197 
4556 3305 2363 3248 1473 4138 2269 1797 4208 
6517 4117 1200 297 4223 104 851 9865 1875 
492 1088 4917 33 1263 4558 5800 8353 3086 
746 2577 4118 464 9710 6495 3887 4380 2058 
5192 8041 2945 4186 3306 4720 4475 4477 4123 
1506 3417 2541 5162 1573 8397 1278 4129 473 
198 4690 1636 4615 6162 1654 3351 942 9916 
357 4026 3473 615 4789 9959 600 750 6943 
9299 3214 4014 7615 9157 4197 167 4104 9650 
3900 5272 1763 868 4046 2215 4043 1154 3377 
1816 67 3330 8351 7784 889 7388 241 7758 
3521 3016 1637 2235 4966 2323 8128 2228 3940 
799 1052 1095 517 4534 3954 260 2252 3588 
2821 8513 1483 782 528 3542 4261 5541 4453 
8831 677 3782 9348 1258 7460 398 6077 361 
3471 2356 1241 444 1138 9376 4124 7759 6731 
3431 578 7777 146 2192 876 666 2547 9948 
9592 178 1158 2750 4731 2520 7282 5255 2499 
6169 6204 4200 4921 3165 6231 9132 3376 3735 
8756 1383 7389 9924 4147 4145 1829 538 4505 
4815 8211 9968 4900 8787 6430 3176 6975 5256 
6043 5597 7958 1882 8575 7996 9110 801 1660 
4583 825 4059 4668 6894 698 1786 9654 1054 
1567 7483 6078 7942 1587 417 1283 1367 8877 
3436 9608 5861 1179 488 7888 9794 9777 1685 
1543 3564 7439 8828 9921 1252 9002 9656 2226 
598 5903 9120 2815 4182 24 7172 9056 9171 
7584 9997 4866 1026 7709 2560 4538 1895 3768 
60 7188 3550 1118 5018 1572 3123 6440 4945 
5427 5872 3540 9832 1484 8342 9411 9460 1818 
1008 2681 4572 6279 6305 3136 9479 7012 6908 
248 5309 1024 6819 8975 1550 5474 8141 9905 
4624 7655 4940 2457 5413 2614 1920 5212 7433 
8410 190 774 5640 9844 2008 7146 9977 9085 
8252 481 8758 5053 6577 7707 8773 8764 9931 
2237 8434 7843 3335 5610 6437 7495 5423 7119 
6256 9709 3149 3467 1549 8442 6048 6116 9949 
8578 3011 4931 9663 7467 2789 493 2039 5196 
6069 4994 6699 4111 7328 4836 6919 5935 2467 
565 7379 2833 9689 2338 9297 2706 4042 4265 
2207 7737 7783 5322 175 7462 5791 6977 9914 
9533 8723 2559 1089 9841 5421 6395 6010 5730 
2202 6528 6142 7197 9712 1982 8803 5695 4736 
2287 5439 3942 6852 4192 7199 1430 288 6470 
6058 8277 6520 9872 2828 9069 7897 7008 8270 
8671 9686 9458 9648 6992 3096 7111 9765 9578 
5858 9179 5361 4209 6719 2253 9521 8268 6479 
559 9223 9130 4439 7822 8364 9782 4967 9520 
5328 8763 4102 2772 9671 7600 7740 7787 9911 
9971 8518 5532 7887 7638 5355 9213 647 8433 
5963 9604 9970 7477 6265 7309 8486 6319 504 
9198 5127 7626 6472 7689 7268 8710 8779 1769 
6585 8810 6459 6460 5021 9511 7125 7216 6288 
5617 8781 5614 7642 6082 9703 7672 3180 6827 
9584 5468 8087 8260 8110 8583 9028 439 7151 
6793 8106 8718 5205 8759 7417 9750 6681 5096 
6587 9685 9564 8180 224 5358 3836 9420 7983 
5774 6152 8125 4210 6060 8550 8195 6315 8064 