# vtk DataFile Version 4.2
Generated by LIGGGHTS
ASCII
DATASET POLYDATA
POINTS 21992 float
-0.00158619 -0.0992028 -0.0491758 -0.0082687 -0.0878902 -0.0484419 -0.0107982 -0.0825584 -0.0479891 
0.00322715 -0.0794373 -0.0490905 -0.00433738 -0.0645275 -0.0482475 -0.00911529 -0.0499281 -0.0482899 
-0.00220696 -0.0376349 -0.0491243 -0.00676414 -0.0345237 -0.0487135 0.00093297 -0.00701488 -0.0491283 
-0.00530963 -0.00621451 -0.048871 -0.00693527 5.40704e-05 -0.0486852 0.000792144 0.00703147 -0.0491118 
-0.00870857 0.0480379 -0.0483626 -0.00382865 0.0480054 -0.0489934 0.00483408 0.0723267 -0.0489113 
-0.00736427 0.0781176 -0.0486052 -0.00474408 0.085215 -0.0489173 -0.00931624 0.087737 -0.0482527 
0.00360152 0.0955557 -0.0488978 -0.0139362 -0.0981829 -0.0460701 -0.010324 -0.0981726 -0.0470348 
-0.00651343 -0.0981839 -0.0457738 -0.00363449 -0.0980923 -0.047987 5.32162e-05 -0.0974498 -0.0481371 
0.0036149 -0.0981804 -0.0480252 0.00871137 -0.0981808 -0.0473524 -0.0146463 -0.0941589 -0.0458779 
-0.00602646 -0.0952021 -0.0477971 -0.000439914 -0.0941015 -0.0468289 0.0029454 -0.0945373 -0.0480784 
0.0064656 -0.0953246 -0.0475909 0.0118333 -0.0964429 -0.046657 -0.0111544 -0.0938528 -0.0468622 
-0.00698473 -0.0916363 -0.0476378 -0.00345513 -0.0924496 -0.0480071 0.0096704 -0.0935609 -0.0471545 
-0.0163191 -0.0893981 -0.0452998 -0.0131493 -0.0908715 -0.0462942 -0.00988179 -0.0894953 -0.0471149 
-0.000724024 -0.0900452 -0.0481418 0.00281296 -0.0909011 -0.0480794 0.00776196 -0.090496 -0.0475467 
-0.0133432 -0.0872444 -0.0462382 -0.00563166 -0.0881212 -0.0478314 -0.00187748 -0.0868093 -0.0469432 
0.00154141 -0.0861982 -0.0481056 0.00502476 -0.0881262 -0.0472812 0.00840947 -0.0866075 -0.0474322 
0.0115337 -0.0883381 -0.0466543 -0.0125881 -0.0836963 -0.0464565 -0.00957469 -0.0856885 -0.0471697 
-0.00690639 -0.0857534 -0.047068 -0.00462417 -0.0846293 -0.0479108 0.00543399 -0.0845605 -0.0478266 
0.0117018 -0.0847096 -0.0467033 -0.0159247 -0.0826494 -0.0454507 -0.00763342 -0.0826267 -0.0475279 
-0.002623 -0.0815949 -0.048067 0.00186831 -0.08146 -0.0480981 -0.0102687 -0.0801715 -0.0470537 
-0.00582957 -0.0794738 -0.0473628 0.00591176 -0.0809607 -0.0477642 0.00948856 -0.0804916 -0.0471884 
0.0130311 -0.0803072 -0.0463622 -0.0142937 -0.0765274 -0.0459652 -0.0115067 -0.0768859 -0.047816 
-0.00826769 -0.0767763 -0.0474088 -0.00262616 -0.0779076 -0.0480739 0.00100778 -0.0779278 -0.0481129 
0.00461934 -0.0775582 -0.047908 0.0102359 -0.0769106 -0.0470182 -0.0164726 -0.0750822 -0.0463228 
-0.0147105 -0.0737815 -0.0469043 -0.0116997 -0.0740799 -0.0467009 -0.00505303 -0.075133 -0.0478697 
-0.000953103 -0.0746792 -0.0481472 0.00268103 -0.0744812 -0.0480844 0.00719274 -0.075005 -0.0476157 
0.0118762 -0.0735717 -0.046676 -0.0140337 -0.0713903 -0.0459643 -0.00825879 -0.0731354 -0.0474102 
-0.00659042 -0.0718838 -0.045808 -0.00507787 -0.0714273 -0.0478769 -0.00146932 -0.0710799 -0.0481545 
0.00262913 -0.0707299 -0.0480855 0.00872099 -0.0717093 -0.0473495 -0.0160684 -0.0684299 -0.0454056 
-0.0106895 -0.0703647 -0.046979 -0.00748649 -0.0686886 -0.0475471 0.00597512 -0.0693254 -0.0477474 
0.0103896 -0.0698234 -0.0480372 0.0125073 -0.0697265 -0.0465017 -0.0137432 -0.0657177 -0.0461233 
-0.0125406 -0.068273 -0.0473856 -0.0102332 -0.0663289 -0.0470622 -0.00399113 -0.0673383 -0.0479567 
-0.000139107 -0.0676965 -0.0481362 0.004865 -0.0658615 -0.0478837 0.00926137 -0.0677789 -0.0468594 
0.0124648 -0.0660902 -0.0465424 -0.00685053 -0.0651068 -0.0476726 -0.000307513 -0.0640433 -0.0481327 
0.00815627 -0.0643685 -0.0474765 -0.0149352 -0.0619523 -0.045786 -0.012993 -0.060651 -0.0473275 
-0.0114959 -0.0627595 -0.0467594 -0.00325505 -0.0618486 -0.0480302 0.00445656 -0.0607756 -0.0479288 
0.00986518 -0.0611797 -0.0471055 -0.0144104 -0.0583296 -0.0459286 -0.010797 -0.0589692 -0.0469527 
-0.00688414 -0.0596439 -0.0476265 -0.00208792 -0.0584088 -0.0481146 0.00082775 -0.0605839 -0.0481183 
-0.0115566 -0.0554179 -0.0467564 -0.00807427 -0.0562043 -0.0474409 -0.00450586 -0.0557029 -0.0479164 
0.000414483 -0.0557734 -0.0481338 0.00375772 -0.057206 -0.048012 0.00806113 -0.0563327 -0.0474941 
0.0116901 -0.0567304 -0.0467006 0.00520391 -0.0537683 -0.0478359 0.00885551 -0.0527906 -0.04732 
-0.013818 -0.0526457 -0.0461104 -0.010062 -0.0521203 -0.0470915 -0.00651126 -0.0526652 -0.0477246 
-0.00234764 -0.052725 -0.0480883 0.00183077 -0.0524265 -0.048097 0.0124938 -0.0527599 -0.0465315 
-0.0139897 -0.0495979 -0.0471105 -0.01202 -0.0493657 -0.0470556 -0.00658939 -0.0490298 -0.0477109 
-0.00230741 -0.0490708 -0.0481076 0.00319623 -0.0490563 -0.0480739 0.00672432 -0.0498619 -0.0476632 
0.0106309 -0.0496428 -0.046933 -0.013365 -0.0469636 -0.0462444 -0.00990171 -0.0476546 -0.0471094 
-0.00442524 -0.0461148 -0.0479223 0.00037137 -0.0466233 -0.0481233 0.00586592 -0.0463292 -0.0477639 
0.00937663 -0.0455524 -0.047209 0.0112462 -0.0472719 -0.0478428 0.0130497 -0.0460965 -0.0463601 
-0.0147387 -0.0432686 -0.0458382 -0.0112686 -0.044043 -0.0468227 -0.00776404 -0.0447386 -0.0475112 
-0.00174611 -0.0436651 -0.0481348 0.0029988 -0.0441205 -0.0480916 -0.0120847 -0.0414219 -0.0470436 
-0.0137725 -0.040613 -0.0465602 -0.00818826 -0.0403924 -0.0474205 -0.00508027 -0.0422296 -0.0478671 
-0.00215129 -0.040051 -0.0481137 0.0013874 -0.040867 -0.0481066 0.00538293 -0.0413989 -0.0478214 
0.00889939 -0.0406532 -0.0473214 -0.0114385 -0.0388861 -0.0467844 0.00378447 -0.0381412 -0.0480133 
0.00731577 -0.0373851 -0.0476054 -0.0145205 -0.0371743 -0.0459068 -0.011276 -0.035251 -0.0468257 
-0.00735184 -0.0368578 -0.0475746 -0.00329512 -0.0355293 -0.0480148 0.000212404 -0.0372643 -0.0481234 
0.0106503 -0.0360107 -0.0469289 -0.0149902 -0.0335464 -0.0457708 -0.0127941 -0.0332057 -0.0474351 
-0.00892214 -0.0325105 -0.0472874 -0.00532582 -0.0325154 -0.0478511 -0.000194414 -0.0336334 -0.0481376 
0.00333818 -0.0327577 -0.0480574 0.00751822 -0.0336788 -0.0475734 -0.0161031 -0.0300896 -0.0453748 
-0.012686 -0.0307913 -0.0464133 -0.00222704 -0.0306183 -0.0480976 0.00628923 -0.0302516 -0.0477139 
0.00998994 -0.0310638 -0.0470833 -0.01426 -0.0270046 -0.0459897 -0.0119874 -0.027798 -0.0476091 
-0.00964388 -0.0289405 -0.0471578 -0.00604917 -0.0288114 -0.0477955 0.00121685 -0.0294294 -0.0481085 
0.00471938 -0.0269719 -0.047897 0.0128134 -0.0273716 -0.0464382 -0.0115275 -0.0247276 -0.0467502 
-0.00998678 -0.0266907 -0.0458575 -0.00808191 -0.0256663 -0.0474387 -0.0044869 -0.0253917 -0.0479148 
-0.0010194 -0.0264671 -0.0481541 0.00202495 -0.0244852 -0.0480887 0.00870204 -0.0250367 -0.0473608 
-0.0145926 -0.0223642 -0.0458804 -0.00677512 -0.0222509 -0.0476817 0.00548363 -0.0234031 -0.0478164 
0.0119969 -0.0236682 -0.0466408 -0.0102839 -0.0213184 -0.0470421 -0.00380921 -0.0197172 -0.0479762 
-0.000809712 -0.0217665 -0.0481449 0.00282063 -0.0209345 -0.0480782 0.00803327 -0.0208307 -0.0475013 
0.0114885 -0.0199672 -0.0467586 -0.0133814 -0.0189333 -0.0462309 -0.0110025 -0.0189722 -0.0479484 
-0.00745414 -0.0186772 -0.0475571 -0.000110381 -0.0177148 -0.0481335 0.00530378 -0.0177502 -0.047836 
0.00911418 -0.0170216 -0.0472634 0.0133092 -0.0168442 -0.0462648 -0.0138761 -0.0153379 -0.0460836 
-0.0105617 -0.0165174 -0.0470073 -0.00685144 -0.0150881 -0.0476703 -0.00337224 -0.0161047 -0.0480103 
0.00252307 -0.0151998 -0.0480841 -0.0153886 -0.0120687 -0.0456246 -0.0119048 -0.0122439 -0.0466472 
-0.00837835 -0.0117426 -0.0473852 -0.00202386 -0.0130311 -0.0465756 0.00149261 -0.0125776 -0.0457595 
0.00429104 -0.0118126 -0.0479493 0.0073319 -0.013799 -0.047593 0.0117224 -0.0131131 -0.0467016 
-0.00486421 -0.0109658 -0.0478937 0.00163537 -0.00932719 -0.0481055 0.00845931 -0.0103155 -0.0474091 
-0.0138906 -0.0086461 -0.0460828 -0.0103793 -0.00863028 -0.0470239 -0.00686796 -0.00793876 -0.0476606 
0.005291 -0.00830871 -0.0478332 -0.0160813 -0.00581975 -0.045384 -0.0130355 -0.00407404 -0.0463281 
-0.00957037 -0.00479707 -0.0471738 -0.00608678 -0.00386113 -0.0477856 -0.00138872 -0.00622297 -0.0481607 
0.00191618 -0.00466062 -0.0480944 0.00415925 -0.00619836 -0.0467799 0.00576958 -0.00439458 -0.0477763 
0.00879494 -0.00636753 -0.0473377 -0.0160746 -0.0021824 -0.0453902 -0.0087619 -0.001254 -0.0473229 
-0.00104948 -0.00255216 -0.0481528 0.0105279 -0.00319744 -0.0469555 -0.0128325 -0.000536667 -0.0455055 
-0.00421953 -0.000672502 -0.0479475 -0.000987889 0.0010834 -0.0481543 0.00224232 -0.000589385 -0.0480883 
0.00626508 -0.00078924 -0.047721 0.0100478 0.000405428 -0.0470579 -0.0141512 0.00281247 -0.0460178 
-0.00738207 0.00239463 -0.0475663 -0.00385332 0.00330779 -0.0479756 0.00329809 0.0030169 -0.048071 
0.00734638 0.0028088 -0.0475907 0.0114167 0.00380878 -0.0467641 -0.014644 0.00643975 -0.0458631 
-0.0111481 0.00468652 -0.0468578 -0.00780889 0.0060075 -0.0474895 -0.000403665 0.00472089 -0.0481361 
0.00551856 0.00595234 -0.0478072 -0.0116332 0.00829194 -0.0467272 -0.00321761 0.00702721 -0.0480196 
0.00778089 0.00878529 -0.047544 -0.014603 0.0102109 -0.0458831 -0.008822 0.0105261 -0.0473072 
-0.0052551 0.0100478 -0.0478532 -0.000293174 0.00925055 -0.0481337 0.00418325 0.0104371 -0.0479593 
0.011534 0.0096798 -0.0467186 -0.011846 0.0124564 -0.0466676 -0.00799028 0.0140641 -0.0474633 
-0.00286812 0.0127845 -0.0480609 0.000965733 0.0126888 -0.0481253 0.00421435 0.014316 -0.0479539 
0.00896796 0.0122147 -0.0472992 0.0128294 0.0130694 -0.0464251 -0.0146867 0.0145774 -0.0458546 
-0.0112859 0.0160436 -0.0468265 -0.00485027 0.0159021 -0.0478861 -0.000688665 0.0159301 -0.0481495 
0.0102826 0.0156006 -0.0470181 -0.00862772 0.0184692 -0.0473475 -0.00244635 0.0191129 -0.0480799 
0.00259691 0.0176409 -0.0480827 0.00643199 0.0172032 -0.0476953 0.0130734 0.0178401 -0.0463496 
-0.0118972 0.0202619 -0.0466549 -0.00573959 0.0206325 -0.0478157 0.000135008 0.0216772 -0.0481303 
0.0037364 0.0211879 -0.0480162 0.00736208 0.0217021 -0.0476008 0.0107568 0.0205922 -0.0469101 
-0.0151107 0.0220117 -0.0457538 -0.012083 0.0238855 -0.0464636 -0.00893798 0.02228 -0.0472952 
-0.003119 0.0232983 -0.0480365 0.0114007 0.0242956 -0.046744 -0.0160244 0.0262461 -0.0454102 
[...]
POINT_DATA 21992
FIELD FieldData 6
id 1 21992 int
19841 19127 12012 19296 11682 21029 12109 16658 18044 
20095 16405 15775 16924 17989 20907 14065 15610 10369 
19342 2989 1411 2284 541 5759 4121 69 1016 
354 7640 3639 6689 7129 792 6734 5884 796 
4110 3740 4970 6385 5171 2307 4691 1222 6804 
2025 5980 7028 3158 5901 4393 18789 4613 4214 
7425 722 6194 5773 4885 7038 3319 5649 4466 
1760 2028 12863 4726 4295 2911 2788 624 21804 
13632 5699 6780 4240 7224 5303 5801 1221 2189 
18924 3524 5452 549 2163 2000 3240 2481 4662 
9214 2779 466 11538 1335 6568 6305 7451 2362 
2273 3165 6224 5500 5702 10344 5944 6421 2491 
2501 4202 2699 4171 5271 724 1993 1069 4103 
7541 5628 1816 756 1148 6857 1190 6243 7225 
3913 4845 418 8920 9447 1702 4203 4979 4487 
7669 3103 524 3557 2935 4805 1391 12014 4392 
6300 3156 3174 4233 321 17903 10142 1696 5409 
2315 3228 4503 6732 7415 7381 1637 5261 3068 
7570 1273 583 4622 6695 19856 1323 2909 7307 
2270 2714 537 1191 171 4650 5080 5889 10803 
1468 3535 6244 6789 6528 1795 8223 1808 4033 
2569 7268 4572 970 5275 5573 1932 2197 5898 
7706 6399 1979 2280 4877 19374 1002 5943 5991 
1908 420 5096 6559 2738 2380 6240 2011 4119 
448 5779 3715 3869 421 3510 269 6086 1540 
6478 6651 1420 1789 5317 4187 2468 26 2342 
3125 20018 2872 7572 7547 3876 3786 6916 1588 
187 7272 6005 3996 77 4303 6423 4475 1680 
7606 1454 2027 1557 3546 6333 1423 6902 1559 
270 3616 1510 4090 5173 1940 2399 3548 1826 
7428 3567 2659 3815 6613 1383 3999 1157 5547 
2940 2977 1483 1577 743 4688 2622 3522 5289 
349 5916 3485 1104 6701 6046 3579 4977 7580 
15999 7701 7671 2965 5717 19179 3267 5067 1974 
1523 2281 7608 2792 5502 2054 5310 344 124 
4052 18460 5569 391 2341 335 496 2164 16243 
3620 1096 1012 11104 5785 5886 6381 7766 3998 
2404 2405 4176 605 4981 2846 4865 9909 110 
6454 2673 4312 6313 2302 2402 1434 11188 5654 
2131 4799 3392 5570 5695 3036 1389 1082 3377 
4755 5341 6952 7663 6199 4608 7687 881 4361 
3877 1734 19455 109 1994 1519 6232 296 3527 
256 6862 6102 3155 4080 6053 12110 7579 2618 
7037 1863 2447 3075 3030 501 11212 20617 3274 
3286 4165 1821 4791 1465 9557 1455 21778 7373 
3636 5982 3694 5768 4376 5135 5831 6007 1287 
7079 6553 6743 7400 9142 2084 6124 3658 2775 
2519 5843 1693 293 5002 2354 3920 5742 407 
5372 5643 4411 5548 4540 12602 4730 2411 6445 
7012 4707 21196 4962 3615 7607 3109 86 1772 
6324 13476 6350 4960 1895 7528 3359 290 7442 
4433 9667 2566 2634 5560 6990 4108 3296 4511 
4714 5286 6368 6523 591 12106 4140 1308 3001 
7771 1947 5689 3366 5950 13401 2012 4505 1767 
6419 5824 3896 2550 7007 6110 15488 626 1695 
3314 7778 6511 7209 5954 5456 1763 7170 3346 
1271 7303 20943 5694 5885 2803 6828 1506 18170 
3032 6549 7732 6187 5250 7507 4012 4159 4191 
2590 1058 3577 1074 1648 6843 5761 17814 6810 
2538 1482 6013 7762 3961 14650 1596 2510 5629 
4950 6662 7719 1220 1073 10802 3172 3950 3088 
7563 5819 773 2855 4676 5383 1861 1128 3330 
6030 2644 8383 7375 3371 4895 7424 6317 18609 
15905 3221 5420 1491 7026 2439 449 2489 3099 
5030 3003 5242 1404 7482 6760 3705 311 6450 
17155 7645 11275 4820 14239 5853 4851 6335 689 
6171 378 6570 4403 3888 19027 6170 6901 6111 
15798 15237 4736 413 2874 5240 4079 3177 5949 
6103 15059 1930 3755 542 7457 5576 319 4076 
6764 362 1798 7169 3126 5800 17867 6209 7071 
959 3907 107 4659 19529 2 19637 2271 1332 
4632 6015 3594 560 2239 4722 6704 2736 602 
4592 426 3117 4112 10128 5939 3574 2210 17431 
3890 18515 6001 7919 4184 18939 8741 8744 6629 
6600 657 6980 4702 4368 4434 1687 18274 11584 
12707 6757 2904 4057 2595 14056 1250 7743 13573 
3642 601 3949 224 19219 1392 7264 19226 2397 
416 1645 4412 5072 5446 1853 2487 4886 4352 
2693 5751 885 6596 10282 8931 2791 4709 3365 
6664 169 3606 5334 16034 3251 2865 2953 388 
3181 5 295 4930 2190 740 5210 5973 1555 
2143 8631 510 3268 10235 6136 4281 3198 19358 
716 1549 17552 2086 4122 7782 5170 7103 1613 
17834 20481 288 20869 5156 11069 5148 5529 2320 
18600 4649 1552 4229 1415 21162 4055 1488 6403 
2508 12872 4579 8799 7447 789 3600 1615 10352 
359 3091 480 98 6998 5775 2108 5578 9451 
17654 10962 1614 7926 346 7391 7761 2820 4166 
3621 6407 9606 21278 13800 5018 194 2676 3390 
4283 6336 5129 13838 4915 4107 7188 2459 5976 
4221 1040 2532 4328 6424 4414 20651 5794 2876 
781 255 6837 865 2185 1059 5713 16108 7489 
6911 1440 870 7631 815 2710 7436 17304 21036 
4464 1746 3992 381 6038 1675 2921 7540 3464 
1817 17028 1787 21474 5863 4648 4086 985 2577 
2893 1375 3288 2530 11444 5929 18203 3483 687 
4084 7084 3016 890 2959 2455 810 5664 6389 
3799 1492 3487 5219 4556 18104 20654 1866 6720 
3362 4800 5594 3677 1658 14185 339 5374 7594 
5661 4072 1025 21693 215 2148 6026 5549 6593 
11144 2675 7724 3891 1165 7613 864 4391 6325 
7070 7458 6148 5168 9958 9827 2363 7621 6417 
5600 2541 6263 11524 741 13533 7354 983 4903 
3656 699 5016 3909 1656 11937 2115 6218 3459 
1936 4344 13167 6047 3722 4836 6066 1129 6235 
1476 5356 280 4390 2391 3580 7266 19959 1989 
7260 7546 6510 5338 4674 5931 2100 3836 798 
7562 4273 8 9262 1529 1252 6733 5012 9097 
17622 2608 7340 7682 6116 6884 4813 14634 1193 
6410 18581 4293 3969 6343 6010 6589 1876 7327 
5177 285 6966 19766 4937 5439 1609 7035 4386 
5781 2735 19887 18202 1382 7317 5389 5433 14381 
7703 105 7014 18200 4063 6506 6472 1409 2428 
7752 2669 4100 19971 3742 920 3725 14828 2204 
7657 12853 5891 1209 5971 334 4655 6605 3389 
1385 7160 3505 5185 1268 3113 7487 5536 7114 
4827 7792 4465 5436 2711 6700 4256 2617 2505 
1131 5707 5190 813 5326 6302 7318 1842 5397 
7105 1634 5799 4759 3279 5125 1419 1033 570 
7430 7502 5941 1304 2344 5736 4952 906 6566 
3360 5475 6931 452 5868 566 6923 5167 6353 
3523 4661 4277 5888 653 713 4870 709 14491 
1184 6755 7008 7620 4806 6756 1931 4673 6428 
6265 7508 3973 2495 3720 6127 5728 3561 4980 
7253 4743 7673 6150 799 5048 896 5008 788 
6656 1232 5423 8822 13974 2174 7538 11202 5710 
661 7466 5833 515 5087 16257 5028 17964 400 
7295 4316 7491 7397 6052 2811 707 16239 11005 
3684 11927 21895 18757 6425 7874 845 4760 12227 
8292 7680 18591 8882 513 8777 992 4371 4438 
6290 7433 6446 3411 19998 20276 6706 8137 17360 
9927 18468 4666 531 5477 3002 7566 17026 7077 
1667 8507 5583 1449 1854 6301 3760 5063 3129 
1704 2356 7202 15438 520 8718 5473 16743 5136 
20001 3382 5936 276 14367 2310 11078 4098 12561 
11490 6439 6168 17136 19874 21481 42 3272 21075 
8719 5989 819 5624 4311 2883 11152 2253 2628 
3354 7234 1922 6826 618 2289 931 7739 3216 
7990 6769 5623 2802 4531 6765 13302 3372 4468 
4301 13087 3934 5232 4287 6000 3048 4762 6286 
5049 4007 4249 19895 15282 4150 10823 3792 1211 
15828 5471 5485 18651 7282 8795 21244 15808 8960 
8989 10561 7437 1897 4889 4612 1292 3632 7622 
5541 17954 3089 11114 16259 20420 3670 5841 18174 
7335 18307 16221 9548 134 1525 2750 1302 125 
4104 688 2854 5178 1103 775 21575 4016 5162 
14440 12764 7744 6925 9051 2913 15964 16112 437 
4182 5605 6477 3991 2119 4890 1027 15368 16009 
10430 7529 3945 21775 15853 10913 1374 2760 10292 
15700 6731 4211 4169 7581 993 5524 3784 2690 
21662 10103 6098 5696 5514 1750 2944 777 3326 
19267 11897 14632 2458 102 337 4477 7497 5592 
1828 3439 6876 18144 3053 4153 2831 2446 2026 
2790 5897 15089 2907 4467 7339 4922 18357 19016 
3304 9683 7684 2039 580 3345 3814 1303 3214 
8105 2873 1594 9901 9601 7954 10301 3338 5060 
3773 4163 4355 1694 21275 823 4727 15068 16340 
6903 1197 12599 1205 4692 5105 21649 3488 7367 
5476 17820 15907 14478 5844 8167 3904 214 6726 
2048 450 19464 10024 1504 8772 1925 3582 8506 
3534 3850 10726 2932 6277 928 2542 954 1028 
16284 21615 11616 3901 11256 17921 12468 12407 3838 
16476 12568 228 7178 2639 5566 6105 6751 2979 
4823 20961 17892 7929 2192 8746 10741 21257 655 
5128 6331 3115 5388 21845 19408 20636 996 1227 
1728 7936 5298 192 7548 714 2695 2198 9787 
14653 12635 10400 8240 511 13235 3212 6164 20479 
4398 442 6812 3364 15553 17001 9347 3660 16339 
13380 17975 16754 3395 122 20 1 776 5110 
11599 9364 7024 4067 5001 5948 2886 2217 7452 
2316 827 1123 5698 2449 15162 14703 1761 1014 
2603 4751 1992 6770 18797 9350 1248 4822 3340 
1913 4292 5509 6044 13939 5733 7273 2721 4354 
3861 4343 862 11506 458 342 4458 921 6404 
3387 7552 6694 1053 5575 15804 3056 15917 1553 
5203 7694 6402 19186 4593 3233 956 2660 3163 
4306 2096 5539 6522 19732 7125 5776 20947 19100 
2083 1497 1023 13276 2982 8717 12277 7032 4262 
4138 3865 2906 21246 871 18662 1985 1879 9366 
1187 1322 19065 162 2476 6230 1072 16030 4898 
7676 5969 6692 4189 2485 7389 1701 20659 17822 
1668 1314 4561 5823 5367 3098 4546 3293 4639 
14019 682 2469 6872 10862 409 2051 2155 7536 
16102 3563 10020 20397 7232 161 2920 2465 2527 
6703 5659 19078 18642 18076 2066 2425 17406 4488 
3719 40 249 3506 2606 9857 100 5510 10084 
15546 8607 12300 10139 13876 10080 1886 6668 6959 
4987 12136 14395 1484 1019 2526 2945 4145 7350 
6050 6599 7150 5213 11106 3367 4929 5197 6996 
761 2960 11712 21672 4695 453 20034 5772 21146 
4685 2075 5760 629 271 17868 18965 12260 5187 
5104 1942 1178 872 7380 18628 20836 21822 8533 
1169 6231 15802 11117 7365 2576 17566 3435 5866 
2509 13034 2214 1394 8784 12356 14884 20339 5790 
18655 15846 19955 14534 4564 3143 11513 16918 3957 
9770 6361 1764 5724 10615 19354 3608 976 1898 
4250 4943 532 19095 11547 10031 5526 19619 1606 
11335 19028 20769 15077 16939 7284 6084 17910 6118 
1310 16927 10908 19902 4737 20216 11173 5636 14664 
1200 4869 1321 3953 10893 12413 7516 18883 20567 
4255 9227 15251 12676 6459 5987 6737 2047 588 
21266 451 7565 7665 379 10133 13230 3361 19908 
6357 4954 6967 6406 2752 18046 3306 12757 4284 
16687 11154 16 5371 1591 5315 749 17544 5935 
14054 19275 9755 694 6281 7717 7025 11420 11861 
21401 6062 1893 9286 2926 21599 21621 5267 11118 
4842 21515 656 855 7414 1094 15637 11379 12475 
19367 7134 7078 6875 4778 2366 7564 3713 1470 
1933 355 16251 13890 16842 5278 4754 500 5937 
3748 10914 4604 7757 6914 19731 4660 6938 995 
7101 6977 1431 3104 5686 16104 19593 7492 7605 
6621 5406 6443 6766 18667 2726 154 4616 5337 
6149 16533 8262 3647 5655 6673 3984 7192 7602 
4908 3175 7469 4729 6352 7044 1929 10535 281 
3928 4708 4765 5887 482 2351 17911 7426 843 
6179 23 3378 888 2536 5249 3536 2021 3480 
4625 7205 5765 8272 14776 7301 5344 7569 3417 
4212 3931 6462 21429 384 6012 6306 16911 4656 
1805 2772 3004 6027 9095 495 5805 5479 7011 
5095 5411 2222 8549 5398 9353 5633 7181 7483 
1682 2830 7039 1743 17135 9265 4004 14370 4315 
6448 3072 5720 4573 3000 16116 20286 6617 17242 
611 2480 19039 527 2631 3461 2593 4550 4810 
15206 20627 2224 1430 21654 10577 10160 6711 6380 
11523 7261 5715 4575 1216 5047 12194 2117 11304 
20508 8802 8145 3614 15458 2558 1336 7204 1841 
1914 5635 8328 12350 7715 4871 5978 67 3370 
21056 10297 17177 21539 4024 16787 21945 12389 3453 
6029 6245 5788 1997 2795 5216 2113 19600 7720 
17251 19559 21535 1867 4228 6886 2649 262 320 
2560 12620 16051 3375 4239 9761 11438 16412 8469 
19686 8396 13139 7577 2511 8201 15635 7959 19093 
7764 20517 7005 14866 16370 17004 21408 10809 9867 
19277 18273 20059 3612 8368 7753 14609 17075 3641 
19642 1413 7500 13732 3805 20472 17309 13123 7175 
3284 18391 825 18850 7262 20458 20434 5157 5318 
2930 6957 14595 6556 13841 8716 17952 16532 12091 
19657 10663 3007 2492 20891 4113 65 10698 2440 
4188 13519 17816 14334 7736 7190 11800 3059 15773 
6131 4444 20730 1217 20486 4781 14215 3323 2589 
20206 15286 14518 13594 183 2166 643 16858 5307 
6521 4450 11060 15061 5440 2035 10610 17293 6948 
5254 14519 12446 9976 7174 2018 5778 2657 11826 
18587 1339 16644 21049 9502 13342 2513 10855 17367 
19789 9830 12324 15217 3665 21680 12533 13158 4151 
377 3552 2231 14195 1758 13657 7756 1677 4588 
18088 20767 13292 4715 19449 18704 15780 15309 9457 
10486 20267 21360 14659 13098 5419 3809 6173 1807 
10551 17845 1565 7316 17501 19262 9139 12974 6212 
12785 9728 2032 6 13728 7003 20937 18091 10582 
13948 13734 9400 9348 16037 9295 18613 21183 2209 
7860 2633 6841 4998 5077 1408 18417 5424 10920 
21130 257 2161 1017 12578 9660 1628 18380 3097 
5730 20169 4091 10627 7760 4738 20439 966 11858 
12182 20765 11495 739 2819 4133 13906 5126 1444 
17099 3243 5280 259 16587 6390 9126 11242 13299 
15198 19899 3187 14495 16585 19759 12545 5276 4042 
5428 635 3874 2946 7481 21139 15256 15586 7441 
6442 2764 1327 4513 7287 20232 3303 20927 5616 
14220 633 16500 6189 13710 13548 10319 20764 20304 
18480 19235 3791 2377 4951 15817 155 14192 10410 
2008 1450 419 12636 2328 13568 1228 21642 3864 
1831 1168 10743 3497 2111 1524 10293 15471 3918 
18905 6942 13623 6123 13052 17233 5204 2729 19517 
14886 5365 4252 19368 4761 10902 12667 1443 14138 
72 14548 15889 21869 15503 2020 1665 17158 2793 
440 6394 20825 16341 17053 14859 21208 8690 21808 
16629 18872 14305 21189 3967 2454 4734 1729 5523 
18367 15722 12986 9968 7418 18944 15106 17298 17713 
12005 17087 10554 986 207 2933 909 338 9938 
2211 2504 18559 9093 8318 18224 2742 11475 11563 
18634 4198 14840 16222 12881 12717 126 6834 3331 
1281 9658 9966 14252 13150 21160 3383 18868 20263 
8814 9872 8119 15699 5234 7652 7629 1850 15100 
3816 2567 5369 2042 14709 5068 2745 16847 19369 
20792 2637 1098 8220 10837 8512 7891 14205 14241 
7677 20502 17702 16991 8393 485 13104 3460 797 
176 5006 18127 10583 3178 12539 14436 4213 8492 
16492 12773 20890 16138 3525 18354 8521 1713 18 
4583 2602 4282 19808 5719 20128 18199 3409 12502 
7309 14432 19401 12817 6910 640 16857 8466 3652 
1625 73 11191 6580 7009 9582 1679 13731 10651 
11946 1564 12768 8748 18447 18893 17369 6364 10490 
2062 1723 7480 7047 8649 10609 10333 14707 20909 
18289 12140 13819 20953 292 17679 5306 5828 4581 
4346 6056 14287 425 14203 11879 8246 17018 14992 
18213 5520 3153 927 6355 2766 1626 2340 4787 
516 4073 18090 2720 2390 1347 5960 1546 13298 
1418 20265 9892 2130 6048 9647 3693 2684 1948 
383 2687 5373 6391 3972 2195 2834 1579 4047 
15362 6176 3054 18435 19332 12852 12934 5711 10434 
3736 267 6415 1926 760 21228 2664 19943 7755 
20760 5670 1247 2290 18659 7153 9716 7809 18691 
10429 14489 11299 3318 6685 6337 670 2619 4457 
7463 15161 7636 5890 21471 20341 8075 17317 4576 
13520 8759 1133 15052 5247 5946 1502 1910 3804 
1500 3009 17486 20887 11757 16071 10143 11348 17420 
15444 21807 11589 10749 14173 2498 19446 15969 146 
7319 7166 8108 4037 14655 21247 17995 21357 20729 
17556 5869 20316 10047 12184 20009 9483 10238 18110 
2203 20140 15451 10520 4060 5399 2202 6960 3438 
4369 16697 16531 9271 9248 14638 9913 10574 8541 
17800 19429 720 8889 1249 4149 12191 2023 2332 
29 15413 6660 18806 10972 3292 10381 8995 7967 
1754 16931 590 7596 6792 950 1022 1576 14607 
341 12416 12082 5124 13398 15416 6463 12975 3543 
219 4941 2101 312 5584 3234 14481 20419 18855 
17607 20198 5930 14839 18946 16518 7511 6638 6814 
2199 6712 4520 5020 1371 4302 11354 5382 20228 
7098 12814 1414 6855 1690 1712 4792 3915 12290 
17797 12159 21195 7325 13465 19158 6709 18521 6785 
9026 5176 14466 20897 14412 4068 3971 9300 1149 
18286 5034 20922 10423 3671 11019 5394 13329 3350 
6500 5820 4589 17339 6322 11482 5260 15594 8261 
16420 13000 20103 9752 12050 16761 15406 18942 10688 
3975 10752 5266 18149 7152 15771 9252 774 12979 
13261 2806 11377 14461 17045 8700 18743 17370 20584 
3176 10100 21042 7141 4118 12837 6178 2225 4360 
873 2986 5466 20670 16865 20919 14867 1880 5108 
7164 11959 17758 20217 16696 4614 6815 892 2442 
10852 19146 4551 14673 6272 766 14751 16572 13905 
11466 5758 3610 5984 11113 3256 12487 4220 6669 
4512 12855 19724 10747 15124 1755 8417 10420 13779 
16083 6051 4363 16072 990 15777 5747 10782 16031 
10192 1297 20168 20393 22000 1364 2414 21846 1961 
4436 5802 6532 4114 20135 10634 10763 3184 15844 
16362 12108 14516 1170 21253 21091 6396 6330 6257 
5111 4991 15384 1790 14037 13279 13378 21855 1369 
21213 6165 18740 4065 1039 4706 16402 5861 8867 
21569 294 412 14585 15285 12376 20777 21025 7582 
4486 488 7386 5336 4502 14715 17319 17817 19494 
5587 9146 7027 17254 5120 5226 1384 4953 3248 
20067 19233 1063 15564 15924 16926 18654 10009 14450 
13407 198 5704 2852 2553 4772 20735 3726 6538 
2556 1011 4257 15098 9124 13220 14266 20301 1739 
6768 7022 935 21608 6323 21118 5467 5038 7868 
4124 20235 5749 19370 7118 15469 4154 7745 5818 
17693 2818 15125 1445 6198 2097 5722 21806 6184 
363 13781 20035 8039 15208 12762 4817 4406 6684 
7575 4931 3989 3450 6375 8378 7315 131 1215 
4046 3302 446 5988 2233 979 6989 7786 6748 
4423 2584 5264 361 3964 5180 6774 4253 7210 
17152 4388 3638 16846 20015 946 3955 3925 5934 
1357 5447 897 1212 1372 677 6019 7675 6707 
2613 6597 5883 5703 6247 6562 1262 4161 7239 
5283 2102 3701 6043 4290 894 4718 3111 60 
10003 6279 158 472 6508 5621 1049 6939 3271 
1067 4031 7711 18895 2860 14336 6871 8376 6017 
9628 20693 2005 1558 1567 6818 4911 10777 6735 
5041 19442 8635 13685 91 15297 1636 8890 11761 
7050 1873 5454 7291 7049 7774 16992 3478 19079 
13525 16191 20875 19286 13651 14799 20374 639 5951 
3754 19036 16812 8725 18473 16013 12699 18111 13131 
19432 11802 9445 6918 17016 7844 16741 14892 1461 
6830 6130 13370 785 21387 6683 4483 16709 13688 
19331 13141 19558 16436 18816 12535 20939 20673 5358 
18739 310 18815 1086 13769 10623 9134 4235 16810 
6255 12488 18262 16327 5959 14110 10798 18583 19387 
2769 17272 19243 10073 9419 17468 20482 3751 16286 
968 4204 958 12820 2889 9171 10840 10053 1784 
14379 10994 8435 20142 11618 20088 14574 18166 18184 
13213 14163 4157 13002 6680 663 5691 21757 3401 
21341 12209 6758 20631 17685 10515 11885 17002 10975 
9734 12479 20308 18688 4095 20356 14102 5850 2836 
7588 2114 2614 9443 6492 21103 21320 14133 8713 
14348 17350 20358 12019 17195 17669 18058 11970 8880 
20416 4304 18403 16573 15647 20552 18051 7464 6576 
1245 7943 4530 10563 21516 6040 20370 13423 20516 
10546 9247 8135 13783 10427 1590 21315 20242 14419 
12474 2887 9435 6106 5606 4753 2394 4043 17421 
17972 1646 5015 3309 17393 12229 18874 21861 15906 
17214 3700 20864 19211 10449 15888 15833 17341 15140 
6122 6622 17699 20598 8742 1829 5004 2810 11806 
11255 5881 8268 13393 16425 9620 16186 15585 7909 
13780 12483 17034 16171 8803 7456 16344 17204 7797 
18303 13878 15764 7689 2472 4335 11366 3987 8149 
10839 14039 2466 13542 13648 20966 138 6633 16805 
2172 8513 9376 11630 10044 2627 300 13338 4690 
18265 3229 691 10010 9574 11752 14971 9699 7956 
7211 19171 12403 12035 9577 21462 16826 4769 3081 
6254 3380 15207 5662 17951 8228 7518 12457 3723 
18008 19649 16908 18775 5441 12500 1329 20230 7123 
11641 2999 21483 4758 1425 4382 15064 11736 859 
18647 14529 3520 8900 16548 10874 9999 4288 16214 
15044 9170 16456 2365 7654 6251 6312 2969 12236 
20260 18116 14006 14104 8054 14044 18495 16568 21390 
10540 12917 12293 20045 14411 20868 5669 278 571 
6591 203 5692 2295 1610 6745 19511 3532 8310 
9757 20704 11247 21797 11678 2507 13403 19859 12885 
16334 1188 8845 5878 7417 2427 4747 17170 8914 
13683 16241 10046 11811 10088 18622 15791 20449 15191 
14441 16496 21115 19599 2050 13389 13278 3467 11448 
2133 5858 5097 7121 7313 4222 1756 6936 4926 
20744 16159 18096 9568 19719 12695 12952 10223 9294 
10302 8106 10966 18018 20775 8516 17722 1279 4377 
9980 260 924 2144 4955 9749 17516 11957 21630 
540 17047 8834 12193 17337 13908 21178 14953 7661 
20226 1396 10291 7229 21554 16174 8121 16608 18758 
20324 12081 12450 15343 18295 4852 12506 20384 10489 
21917 19258 367 9182 6460 4914 4190 4054 19900 
3986 17448 21794 3141 12598 9064 11203 10884 8531 
15783 10524 20960 10695 12436 12605 19964 3492 5364 
10426 9519 13112 16451 4261 2022 6847 7342 3290 
1537 6895 3994 3469 7748 4863 7865 225 21683 
20194 20077 10933 4646 16981 14302 17389 19855 10799 
6739 14775 121 14134 457 14160 20844 18069 9995 
14291 1515 15639 19892 9100 10633 8320 10072 17978 
14811 1757 13558 829 2968 7591 7571 9239 1048 
15287 12285 8384 14337 7940 9570 16923 8050 20849 
18918 9661 15662 21290 18173 21192 9534 1582 11052 
15836 7989 20565 1692 4492 1177 1080 4232 21338 
6341 21400 731 19472 18427 15823 4362 9581 10311 
17489 8049 6204 8447 8992 8498 8263 20614 15695 
11393 16947 3948 9812 12068 17887 3853 13426 1963 
19349 6267 20946 8676 15919 15643 17780 8522 9283 