# vtk DataFile Version 4.2
Generated by LIGGGHTS
ASCII
DATASET POLYDATA
POINTS 21992 float
-0.00378986 -0.0912156 -0.0490008 0.0027903 -0.0760514 -0.049098 -0.00211458 -0.0749386 -0.0489647 
0.00078907 -0.0736019 -0.0491395 0.00416331 -0.0495926 -0.0489697 0.00168505 -0.0328072 -0.0491401 
-0.00986152 -0.0149439 -0.0481435 -0.00978996 -0.00599709 -0.0481461 0.00223158 0.0250086 -0.0491535 
-0.00948223 0.0328147 -0.0482169 0.00323693 0.0692014 -0.0490629 -0.00255807 0.0865242 -0.0491226 
-0.0159723 -0.0969308 -0.0454553 -0.0127028 -0.0981838 -0.046435 -0.00907074 -0.0981846 -0.0455568 
-0.00617264 -0.0981831 -0.0477518 -0.000758551 -0.0981091 -0.0481179 0.00121196 -0.0968351 -0.0468863 
0.00321104 -0.0981483 -0.0480086 0.00687409 -0.0980719 -0.0476683 -0.0117507 -0.0946854 -0.0467179 
-0.00821826 -0.095189 -0.0474294 -0.00350794 -0.0957188 -0.0480136 0.00200323 -0.0946709 -0.0481236 
0.00615839 -0.093931 -0.0477466 0.0108004 -0.0952929 -0.0469123 -0.0134539 -0.0915129 -0.0462081 
-0.00953764 -0.0936854 -0.0457374 -0.00899417 -0.0916383 -0.0472788 -0.00556582 -0.0927291 -0.0478096 
-0.00145185 -0.0927203 -0.0481247 0.01057 -0.0916688 -0.0469489 -0.0111681 -0.0887573 -0.0468506 
-0.00495536 -0.0891452 -0.0478747 0.000431728 -0.0896084 -0.0481281 0.00374005 -0.0912219 -0.0479888 
0.00745129 -0.0898687 -0.0475894 -0.0145799 -0.0879671 -0.0458698 -0.00470134 -0.0872872 -0.0460418 
0.00346435 -0.0875937 -0.0480143 0.008913 -0.0877472 -0.0483305 -0.0152301 -0.084137 -0.0456794 
-0.0118947 -0.0851983 -0.0466745 -0.00845403 -0.0861543 -0.0473803 -0.00408129 -0.0856139 -0.0479536 
-0.000478633 -0.0860867 -0.0481302 0.00684404 -0.0862847 -0.0476753 0.0106421 -0.0844241 -0.0469288 
-0.0116583 -0.0815693 -0.0467488 -0.00350034 -0.0820243 -0.0480178 0.000144359 -0.082376 -0.0481253 
0.00402849 -0.0826644 -0.0479626 0.00631991 -0.0815269 -0.0487644 0.00860833 -0.0814307 -0.0473525 
-0.0149883 -0.0805108 -0.045746 -0.00643524 -0.0791647 -0.0477231 -0.00210273 -0.0786694 -0.048127 
0.00203864 -0.0798877 -0.0462636 0.00525396 -0.0792438 -0.0478377 0.0131087 -0.0811127 -0.0463164 
-0.0146256 -0.0768805 -0.0458537 -0.011182 -0.0778421 -0.0468464 0.000362969 -0.0759949 -0.0481364 
0.00712833 -0.0760217 -0.0476458 0.0112943 -0.077946 -0.0468246 -0.0121275 -0.074337 -0.0466111 
-0.00818409 -0.0755554 -0.0474383 -0.00458386 -0.0760216 -0.0479131 0.00396512 -0.0735147 -0.0479696 
0.0107428 -0.0741341 -0.0469244 -0.0153449 -0.0729422 -0.0456449 -0.0107711 -0.070878 -0.0469299 
-0.00737906 -0.0720123 -0.0476002 -0.00239628 -0.0722742 -0.0481097 0.00133158 -0.0709816 -0.0481182 
0.00764509 -0.0723285 -0.0475544 -0.014312 -0.069475 -0.0459569 -0.00481417 -0.0694467 -0.0478789 
-0.00131388 -0.0684849 -0.0481215 0.00486464 -0.0699937 -0.04788 0.0107165 -0.0704827 -0.0469404 
-0.014935 -0.066778 -0.046725 -0.0123127 -0.066261 -0.0465515 -0.00964727 -0.0658459 -0.0457527 
-0.00857602 -0.0676088 -0.0473638 -0.00580649 -0.0670542 -0.0468412 0.00427045 -0.0663833 -0.047934 
0.00798202 -0.0677108 -0.0474782 0.0117572 -0.0670035 -0.0467241 -0.00862938 -0.0639535 -0.0473574 
-0.00457386 -0.0649646 -0.0479132 0.000749146 -0.0654811 -0.0481341 0.0070862 -0.0640872 -0.0476552 
-0.0138264 -0.0629814 -0.0460958 -0.0108356 -0.0610765 -0.0469116 -0.0043163 -0.0609323 -0.047932 
-0.000766183 -0.0618722 -0.0481303 0.00137225 -0.0602974 -0.0472978 0.00293616 -0.0625748 -0.0480689 
0.0102708 -0.0616656 -0.0470217 -0.013872 -0.0592363 -0.0460721 -0.0075336 -0.0592743 -0.0475711 
-0.000520301 -0.0581631 -0.0481258 0.00311021 -0.0584909 -0.0480492 0.00685905 -0.0588836 -0.0476787 
0.0131235 -0.0584429 -0.0463117 -0.0194995 -0.0554613 -0.0451144 -0.0135668 -0.0554861 -0.0461693 
-0.0106135 -0.0574469 -0.0469571 -0.0073108 -0.0556337 -0.0475113 -0.00357284 -0.0561929 -0.0480054 
0.009462 -0.0561426 -0.0471808 -0.0159186 -0.0528035 -0.0454765 -0.0104466 -0.0538135 -0.0469962 
-0.00527859 -0.0540557 -0.0469316 0.00156044 -0.0551353 -0.0481238 0.00539218 -0.0553129 -0.0478225 
0.0114338 -0.0529557 -0.0467911 -0.0124898 -0.050843 -0.0465044 -0.00702333 -0.05201 -0.0476678 
-0.00342165 -0.052558 -0.048015 -5.1321e-05 -0.0511911 -0.0481209 0.00252662 -0.0505142 -0.0462944 
0.0037931 -0.052018 -0.0480024 0.00763861 -0.0524051 -0.0475471 -0.0155481 -0.0491123 -0.0455914 
-0.0078511 -0.0480011 -0.0475066 -0.00278446 -0.0494035 -0.0463194 0.00833555 -0.0487605 -0.0474082 
0.0119103 -0.0489025 -0.0466905 -0.0113693 -0.0473986 -0.0468087 -0.00449346 -0.046617 -0.0479165 
-3.60224e-05 -0.0475531 -0.0481213 0.00358277 -0.0471859 -0.0480087 0.0101037 -0.045604 -0.047053 
-0.0134386 -0.0444696 -0.0462152 -0.0105023 -0.042435 -0.0469774 -0.00726653 -0.0442813 -0.047612 
-0.000938759 -0.0440305 -0.0481266 0.00268348 -0.0436608 -0.0480932 0.00642792 -0.0445645 -0.0477221 
-0.0160814 -0.042099 -0.0454162 -0.0132134 -0.0400357 -0.0462714 -0.00725863 -0.0406063 -0.0476266 
-0.0038999 -0.0419299 -0.0479733 0.0058375 -0.0404524 -0.0477829 0.00905915 -0.0420957 -0.0472631 
-0.0158251 -0.0393805 -0.0465481 -0.0128569 -0.0375394 -0.0474476 -0.0101295 -0.0382761 -0.0470567 
-0.00278149 -0.0383105 -0.0480752 0.00230229 -0.0380818 -0.0481171 0.0116023 -0.0395433 -0.0467494 
0.014117 -0.0382686 -0.0470542 -0.0155994 -0.0367517 -0.0455598 -0.0121115 -0.0351603 -0.0466187 
-0.00678263 -0.0370051 -0.0476949 -0.00397326 -0.0347139 -0.0479613 0.00677633 -0.0369214 -0.0476883 
0.00880336 -0.0348431 -0.0483449 0.0118397 -0.0359128 -0.0467045 -0.0150602 -0.0331592 -0.0457219 
-0.00881115 -0.033819 -0.0473252 -0.000704458 -0.0331328 -0.048125 0.00332296 -0.0345209 -0.0480305 
0.00982815 -0.0324215 -0.0471079 -0.0118353 -0.0314544 -0.046698 -0.00591693 -0.031646 -0.0477849 
-0.00241387 -0.029923 -0.0481186 0.00167026 -0.0303798 -0.0481313 0.00625109 -0.032178 -0.0477361 
0.0129409 -0.0306164 -0.0463693 -0.0173291 -0.02899 -0.0460122 -0.0147823 -0.0295327 -0.0457621 
-0.0119058 -0.0275004 -0.0466702 -0.00882819 -0.029368 -0.0472336 -0.00539347 -0.0276717 -0.0478245 
-5.41207e-07 -0.0271526 -0.0481303 0.00248957 -0.0279614 -0.0473639 0.00492548 -0.028793 -0.047869 
0.00973571 -0.0287249 -0.0471326 -0.0155921 -0.0259478 -0.0455602 -0.00917698 -0.0251641 -0.0472382 
0.00327023 -0.0255568 -0.0480425 0.0071751 -0.0261654 -0.0467432 0.0107148 -0.0252258 -0.0469331 
-0.0155559 -0.0218548 -0.0455706 -0.0126797 -0.0239394 -0.0464393 -0.00565902 -0.0226857 -0.0478028 
-0.00242377 -0.0243193 -0.0481105 0.000889194 -0.0228102 -0.0481322 0.00439817 -0.0218679 -0.0479191 
0.00791575 -0.0226861 -0.047495 -0.013295 -0.0212214 -0.0473164 -0.0106966 -0.0209325 -0.0469465 
-0.00729785 -0.0193295 -0.0476213 0.00402067 -0.0193014 -0.0475564 0.0101976 -0.019883 -0.0470466 
0.0131148 -0.0219243 -0.0463065 -0.0135839 -0.0188551 -0.046171 -0.0102951 -0.0173206 -0.0470251 
-0.00349882 -0.0186169 -0.0480079 0.000538819 -0.019155 -0.0481315 0.00333262 -0.0168268 -0.0480357 
0.00652442 -0.0185806 -0.0477182 -0.0173995 -0.0154187 -0.0459756 -0.0071029 -0.0156947 -0.0476513 
-0.00361858 -0.0147167 -0.0480014 -8.70645e-05 -0.0155732 -0.0481273 0.00647554 -0.0149422 -0.0477127 
0.0100512 -0.0162526 -0.0470712 -0.0144913 -0.0131136 -0.0459 -0.0109983 -0.0129313 -0.046888 
-0.00750723 -0.0120782 -0.0475665 -0.00156677 -0.0118913 -0.046984 0.00271528 -0.0132404 -0.0480907 
-0.0136334 -0.00937555 -0.0461442 0.000291019 -0.00898773 -0.0481236 0.00582186 -0.0113624 -0.0477844 
0.00927668 -0.0103658 -0.0472215 -0.0101412 -0.00885359 -0.0470487 -0.00660462 -0.00831099 -0.0477185 
0.00385659 -0.00831168 -0.0479804 0.00733743 -0.0073065 -0.0476099 0.00996104 -0.00735113 -0.0481054 
0.0123797 -0.00663011 -0.0465449 -0.0157342 -0.00626037 -0.045518 -0.0122652 -0.00591301 -0.0465695 
-0.0017706 -0.00599822 -0.0481389 0.00445523 -0.0047241 -0.0479161 -0.014319 -0.0029097 -0.0459591 
-0.00997381 -0.00310478 -0.0470806 -0.00617968 -0.00306247 -0.047753 -0.00248378 -0.00219152 -0.0481135 
0.000991737 -0.00362359 -0.04812 0.00791358 -0.00362485 -0.0474917 -0.0156307 0.00065009 -0.0455538 
-0.0121498 -6.38538e-05 -0.0465996 -0.0080794 2.37456e-05 -0.0474622 -0.00463951 0.00110813 -0.0478945 
0.000369694 0.000904159 -0.0481203 0.00523973 -0.00113759 -0.0478523 0.00768154 -0.000435377 -0.0485734 
0.0106234 -0.000877956 -0.0469575 -0.0130767 0.00344029 -0.0463214 -0.00748562 0.00361325 -0.0475726 
0.00295611 0.00347201 -0.0480755 0.00683572 0.00213506 -0.0476779 0.0130711 0.00174206 -0.0463245 
-0.014864 0.00656131 -0.0457885 -0.0103601 0.00581782 -0.0470058 -0.00389375 0.00466855 -0.0479686 
-0.000122273 0.00612338 -0.0481242 0.00602836 0.0061333 -0.0477574 0.00979265 0.004181 -0.0471148 
0.013153 0.00537726 -0.0463053 -0.0103915 0.00861195 -0.0469359 -0.00678646 0.00718072 -0.0477004 
-0.00308897 0.00822511 -0.0480559 0.00302922 0.00844905 -0.0480579 0.0104549 0.00775745 -0.0469569 
-0.0160781 0.0108574 -0.0454122 -0.0128478 0.00951868 -0.0463971 -0.00653457 0.0108111 -0.047713 
-0.000109708 0.0102993 -0.0481169 0.0057254 0.011131 -0.0477998 0.00931031 0.0112071 -0.0472199 
-0.0130826 0.013935 -0.0463156 -0.0101632 0.0118791 -0.0470518 -0.0077742 0.0126502 -0.0463062 
-0.00322831 0.0122991 -0.0480336 0.00252602 0.012828 -0.0481088 -0.00990721 0.01555 -0.0470999 
-0.00649584 0.0144488 -0.0477178 -0.0032306 0.0160132 -0.0480411 0.00039795 0.0157766 -0.0481312 
0.00425573 0.0161224 -0.0479437 0.00759432 0.0147356 -0.0475659 0.0110091 0.0157834 -0.0468702 
-0.0161623 0.018387 -0.0453937 -0.0127413 0.0177329 -0.0464263 -0.00617773 0.0181165 -0.0477559 
0.00631218 0.019176 -0.0477291 0.0124537 0.019129 -0.0465134 -0.0163163 0.0208436 -0.0463463 
-0.0135414 0.0212827 -0.0461879 -0.0095564 0.0193152 -0.0471683 -0.00678836 0.0216979 -0.0476953 
-0.00701705 0.0201886 -0.0455414 -0.00303606 0.0199131 -0.048055 0.00318779 0.0210123 -0.0480426 
0.00945001 0.0211199 -0.0471855 -0.0101519 0.0229002 -0.0470466 -0.00370662 0.0236055 -0.0479896 
-0.000237727 0.0222278 -0.0481263 0.00630446 0.022862 -0.0477409 -0.0131036 0.0248854 -0.0463205 
[...]
POINT_DATA 21992
FIELD FieldData 6
id 1 21992 int
15488 12863 21804 13632 8920 19856 19358 10352 15999 
21693 9557 21196 6597 7301 5344 4140 1308 13401 
2989 1411 1931 4673 5950 1016 792 354 6027 
9095 5728 6110 626 6734 6656 5456 4110 3740 
4970 2830 20943 4691 19127 3000 5833 1232 6828 
1506 4393 4613 7491 4159 722 5901 12012 6194 
5715 1648 6843 4191 7038 5773 1841 6446 2028 
4726 4295 3002 3961 1220 5699 6780 2795 3760 
7563 5819 1221 2189 320 2644 2000 3240 3524 
11078 4098 12561 6030 18609 1335 2481 6568 449 
2489 466 3165 618 2289 1404 5702 10344 5944 
6421 6765 7645 4202 2699 4171 5271 20730 6286 
5049 378 6570 4103 5778 7282 15798 1993 1069 
3913 3632 6103 4736 1190 21029 6243 7225 1677 
319 6764 1702 4203 688 7071 3103 524 3557 
4016 2119 2271 6300 3156 3174 5077 3991 602 
4592 1696 5409 15853 10913 1374 3890 7415 2315 
12109 5280 5524 6980 4702 7570 16658 1273 635 
4057 6695 3068 2909 7497 224 537 1191 1323 
171 15817 155 2790 3949 5072 5889 10803 1468 
3535 1831 6596 1795 1808 4033 4252 3214 5334 
2791 970 2197 5275 21275 823 1555 19374 5898 
7706 4692 5105 2143 4877 6559 1002 19464 716 
1549 5096 2738 2380 954 1028 1613 2011 4119 
2979 6478 448 269 4823 2508 6651 1420 20095 
2342 5006 2695 5317 2468 3364 2108 5578 7547 
4187 26 73 776 3621 6407 4303 3876 16405 
187 7452 6336 1557 6423 7272 2766 4751 2459 
2027 3546 4475 6333 20651 5794 2876 6902 1559 
1546 4354 5713 3616 1510 4090 1053 5575 15804 
7631 3548 4593 3992 381 1383 3999 1826 1157 
1926 7125 1787 2977 1483 18659 3865 5776 2893 
20947 1375 2622 3522 6230 4084 1104 6046 4189 
3799 7580 7701 7671 3098 4546 1658 1866 3267 
5067 1974 2155 14185 2148 2792 5502 2054 5310 
2332 3506 215 4052 1022 3891 2341 496 2164 
6668 6959 6148 9958 5168 3998 5785 5886 4520 
2404 2405 6996 761 699 4981 2846 629 3459 
1936 2673 4312 6313 16924 6322 18628 5760 20836 
8533 1476 5654 2131 2214 11513 7266 5695 3036 
873 16918 3957 2100 5341 6952 532 9262 1529 
14634 881 4361 3877 1734 296 12487 17910 6118 
4813 6232 4869 1321 285 6343 6862 6102 1863 
3155 21266 451 2752 2618 7037 1821 4991 5781 
14381 20617 3274 3286 5315 5433 7703 3694 4376 
1455 5336 7717 7025 7752 2204 5768 7400 1384 
3713 3725 7079 6553 6743 1470 6605 3658 5002 
14065 2775 21608 6323 3748 7487 5536 5372 15469 
4154 7101 5326 5643 4411 5548 4931 5337 5190 
813 4730 2411 6445 15610 7105 1772 10369 6324 
446 7602 1033 1634 86 6350 5264 7192 1304 
7528 17152 2351 281 17911 6931 4433 9667 2566 
2634 5934 1357 2536 4661 4277 12106 3296 4511 
8272 13420 14776 19841 5385 2613 5883 7569 6755 
7008 2284 541 5759 5301 2102 4656 6428 6265 
2012 4505 6508 3561 1695 3314 3639 982 7711 
5621 5095 799 5694 7778 5884 5171 12275 733 
6818 7039 5423 1763 18789 1222 6385 559 515 
5087 3032 6549 2025 3275 3754 6052 2811 2590 
7732 4885 21387 4575 7397 6810 19296 9134 4235 
16810 785 845 4760 14650 7680 3319 2911 958 
3370 1914 7077 1073 1596 5629 4240 7224 3401 
2113 7566 773 2855 4676 3172 2614 262 5063 
3129 11538 3371 18924 4895 5452 4662 520 8383 
6168 7375 3221 6305 4043 7500 13732 2253 6439 
3099 5420 6224 7451 2810 6957 2628 5030 6760 
11682 3705 2491 20486 4188 3372 4468 7482 13087 
4820 724 4335 1217 4781 4007 11275 3888 19027 
6170 5853 4851 5628 6254 8795 18651 4403 413 
2874 5240 4079 7541 4758 18174 7622 3755 542 
4845 1148 6251 7756 4076 1798 7169 4979 5692 
3809 19637 2854 959 3907 107 3126 2935 4805 
17170 5162 1027 12764 1332 6015 3594 4233 7121 
4890 18515 10142 17903 4632 3117 4112 3228 4503 
2144 5730 20169 17431 426 6001 7381 17099 3243 
3784 4368 5261 1687 7743 6757 4054 2946 3326 
2595 7307 2270 2714 1537 7287 5592 19219 1828 
1392 7264 2397 457 14192 2008 4922 5446 1853 
19016 8223 2487 2569 6244 7591 7954 4709 3251 
7268 6789 12068 1177 4761 2873 19368 4727 1594 
10301 2865 3365 2871 3488 16340 295 4930 2190 
740 6399 4801 5523 18367 7367 8631 510 3268 
4122 6136 5943 13794 338 2504 1504 288 2086 
3715 6240 5991 4310 16284 21615 9966 17892 11616 
7929 3901 5156 5779 5148 3869 7629 20961 3816 
19408 2192 2320 1415 4055 6086 974 16847 10583 
21845 996 4579 12872 4229 7447 18044 1789 176 
17001 2198 359 10400 3091 480 98 20018 3125 
15376 2794 19808 5719 15553 11191 9451 3660 9606 
17654 13380 1614 5018 346 7391 3786 5917 1625 
5110 21278 1588 5129 194 2676 6005 3996 7480 
2316 827 5976 4221 4915 1680 3448 4346 6770 
1040 2532 15775 6355 3861 4292 781 255 6837 
865 1940 4343 5173 2384 383 862 815 7436 
7489 7428 3567 2659 3254 1579 3233 956 2660 
6038 2710 2921 5547 994 2083 21474 5863 1675 
4086 985 478 7153 2906 4648 3016 2530 5289 
349 7626 4457 2485 1072 3288 6701 3579 1500 
7389 1492 3487 3362 4800 2965 5717 3756 339 
5374 9597 4021 6960 7536 4639 6720 18460 7594 
344 1523 12191 6551 2023 5659 6026 335 6593 
3620 5569 1096 9857 100 1165 4391 6993 312 
5584 4987 9827 2363 7354 7621 6381 4793 685 
5020 7150 2960 5213 3909 741 9909 983 4176 
605 1712 5016 1656 4865 6047 2402 14258 5678 
1149 21822 271 17868 4344 2391 4799 2302 1973 
758 11482 5260 1169 19959 5356 280 4390 17989 
3392 13034 774 1394 1989 7260 1389 1082 3377 
744 10852 2986 9770 6361 1764 3836 7663 6199 
3133 4220 19146 19095 11547 5526 19619 1252 6733 
6410 109 6669 1310 6010 1193 6589 4080 14317 
5609 5747 4114 10782 3953 6966 14942 4837 6532 
7565 7665 2735 4937 5439 1609 2447 3075 21710 
5457 21618 15384 749 5935 11212 19887 4063 4165 
7373 2839 4502 11420 17544 105 7014 4100 21778 
5135 3636 20907 4336 3248 11861 6062 14828 1893 
7657 2669 1209 2084 6917 1094 3389 1385 12853 
5891 6202 4341 3726 7160 4827 2519 7745 10914 
1933 4604 7114 4256 2617 2505 2354 3920 1681 
6977 1431 3104 7318 7012 7610 951 8977 2097 
5722 6302 4158 7213 6443 6149 5799 4759 4962 
3615 4960 5852 5988 4908 3175 1895 4952 3359 
5312 5859 5207 10535 3928 4708 566 5560 19342 
2956 142 4388 3638 452 5868 6923 3039 5447 
897 5249 5888 653 4714 5286 438 879 6319 
5703 3417 4212 3001 7620 4121 69 607 6429 
734 7461 6043 3973 1767 7771 5814 2230 7427 
6114 3701 495 7508 6511 5824 6045 2860 5411 
896 7640 1271 6308 4911 1743 17135 5048 13974 
7538 7170 5980 7028 5777 4595 5454 7291 7774 
2174 6187 6804 4214 6158 10709 5766 4810 15206 
2224 18170 5028 11005 5250 7507 17810 4899 5224 
6683 5047 1430 12227 707 3684 5649 4407 12820 
6255 5761 992 2538 2788 19306 145 2889 5635 
3411 10802 6706 2510 9927 624 3220 21757 1352 
6492 5216 12209 10297 7720 17026 1667 5583 3950 
2163 5415 7454 15580 13140 9443 2560 12620 3375 
5473 1704 16743 5136 549 2779 297 6576 1245 
7005 8718 4239 15905 42 3272 21075 5989 2362 
2278 5589 17421 5015 11152 11490 3284 3354 8719 
1491 2273 666 3805 7175 931 7739 3216 1922 
3003 7439 10698 3987 2440 13302 10839 14595 6556 
3934 5232 6335 3012 5202 18265 3229 13519 4150 
14239 3792 756 7488 4382 5440 2035 4249 19895 
8960 7437 3177 6901 2657 15061 11826 15237 5541 
1930 4889 6857 5362 6312 4588 13292 7335 362 
134 1525 4487 5874 1610 6173 1565 1103 775 
5800 978 2858 13728 7003 10551 18091 14440 7744 
6925 321 1391 6626 4222 1408 6936 5424 16009 
2913 10128 5939 3574 6732 15323 4091 259 7760 
4738 15368 21662 2760 7919 6731 583 18939 1637 
4622 6979 6941 3874 16174 16587 7481 2690 4434 
6098 11897 18274 11584 4184 2904 229 20232 20927 
14056 1250 13573 2458 5696 6937 19900 3994 3303 
5616 3439 5897 6876 416 1645 4142 1960 7571 
10410 20844 419 3304 9683 15089 4352 4650 1168 
10282 8931 1524 3338 7684 4886 5751 2813 4232 
10902 20825 1443 16034 9601 9901 72 5060 3773 
2953 5573 1979 4716 6418 6394 8105 9968 15068 
14859 6903 5210 4281 698 12021 4081 15722 21649 
10024 12986 7418 5476 17820 14478 5844 10235 1908 
20417 4749 14014 9658 9938 2211 18559 9093 8772 
18224 1925 3534 11069 7782 5170 7103 3510 21249 
5462 1850 14252 13150 11256 3383 17834 20481 3838 
17552 7178 421 2138 7095 729 20792 15100 20636 
4649 18600 1552 5128 21162 1488 1540 19369 2637 
1098 8220 14436 1227 1728 8799 5298 192 789 
3592 867 18127 4587 3178 12539 9787 14653 7309 
511 8240 3212 6164 442 2872 459 6838 10725 
20128 3409 9347 13800 10962 17975 16754 7926 5001 
3395 7761 6916 3 6580 1679 7024 4067 5948 
15162 2886 2698 771 1123 13838 2449 4822 4328 
3390 7606 6647 1626 1992 6056 9350 1248 5733 
6424 1640 2213 21698 4787 5509 6044 1423 270 
5413 4274 1418 20265 516 458 342 16108 4458 
1440 3815 1725 3010 5373 11506 3056 17304 21036 
4464 4047 6176 1553 1023 7540 743 6908 4653 
760 21228 2664 1497 2982 3464 1577 12694 6947 
7463 871 1985 1879 5929 5916 3485 397 18834 
4997 3154 3009 7636 5890 18662 7084 11444 18203 
2959 1824 4037 1701 2469 5219 4556 7608 7113 
11457 2264 3438 3293 682 7232 6872 18961 794 
11943 12789 19399 17995 16102 2066 11144 5661 2675 
391 19137 3997 7521 29 2606 6660 19078 5549 
1886 124 9365 6188 6379 1576 8000 14607 3234 
12136 7613 864 10139 2945 6325 10305 16114 4553 
14481 14395 1484 1019 13533 6417 7766 1812 646 
4135 1371 4302 4695 11524 11937 453 4903 6454 
11699 6006 17065 1344 21940 4792 3915 21195 12159 
7325 11712 13167 2115 110 8350 19702 17339 6185 
9300 5034 7365 5187 5104 1434 1359 17334 757 
16484 9252 15771 15302 6220 13261 6231 14884 2576 
7546 6510 18929 3688 6717 3490 2806 8784 11117 
12356 5790 18655 7562 3217 157 2594 5499 5466 
20670 1880 5724 5012 798 4608 6326 4003 4551 
14673 10031 6272 766 11335 2608 7311 4647 14777 
4512 16927 7516 19902 19766 4737 9097 18581 1876 
3969 3527 3266 9836 1984 8477 16031 10192 10893 
16362 379 18883 4255 6357 16687 7035 14637 14905 
5963 21164 16966 20982 3697 19311 20135 10763 21213 
3361 4284 4791 501 11493 16804 6808 1790 13279 
18046 14037 21855 1369 14054 3306 18200 1382 1465 
914 14740 2262 1214 5267 11118 6506 6472 5982 
6691 6480 4618 4953 16369 20450 294 1063 19367 
21599 6875 4778 5971 6124 13350 1531 20735 6538 
21401 20067 15637 11379 7134 5278 4754 3505 5185 
1268 4484 5045 2623 4809 2556 355 16251 7757 
6914 19731 7792 5843 1693 200 4183 6670 1627 
5467 19593 7492 4465 5436 5742 6264 7 5818 
5686 1842 12602 4540 140 998 1289 6954 19623 
21806 6184 6766 5655 5125 4707 2837 4337 3473 
3989 979 570 3279 13476 7502 1198 11446 3618 
787 2233 5736 7430 290 517 933 3597 361 
4765 6179 7442 1952 6213 4452 3027 6595 12424 
506 7426 5167 6990 6523 7611 6645 2325 5225 
4830 16846 6550 3536 713 6368 1779 4408 7785 
880 5740 6562 5313 7172 4320 4675 1759 894 
6419 6756 7007 14684 1446 20129 6939 4290 5805 
6689 796 5590 7299 2654 18895 1049 14336 6871 
2222 5008 4980 4651 1745 1151 11564 4892 6735 
5041 4315 788 7209 12644 18283 2080 13455 7049 
16257 4004 17242 2480 5885 3346 1070 7609 4900 
4115 19036 8725 16116 20627 3478 9265 9445 20286 
8822 20875 6617 17964 6425 7425 7555 13370 16812 
1216 19432 11802 12194 19079 8292 10577 8882 16239 
18591 6711 1058 1760 235 4545 12488 18262 4483 
19331 5959 13688 2769 2117 12350 513 6380 17814 
1482 4466 2767 4175 1196 18038 9171 21056 10053 
14379 14110 20142 21539 4024 8328 19998 20276 8777 
3453 17360 1449 4950 1258 11760 4445 6758 1784 
17177 11885 10975 8507 5850 2356 3382 5383 5303 
7719 5801 467 12467 7653 7018 21320 20358 14133 
21341 16051 20631 8713 20416 11438 16412 17251 21535 
8396 2511 1861 3330 18093 9490 21103 7943 10563 
6040 14866 17004 9761 21481 21408 17136 1590 19277 
13139 20059 7577 20001 7753 819 7424 9214 15772 
4267 4811 1646 17972 20517 3309 20472 15906 16370 
17309 18874 12229 19874 18391 825 7262 3612 7026 
119 475 11255 11806 8149 9620 13393 12483 13841 
16425 8716 17952 16532 12091 3007 7234 5500 5268 
18024 15862 11366 18563 14039 2466 13542 4301 7736 
10823 311 2501 6171 5151 6631 20066 20791 3380 
691 14215 9574 3323 2589 17816 15282 14334 20206 
15286 14518 13594 2166 3059 6769 4287 1816 3499 
15278 8620 15207 5662 15808 6948 8989 10561 1897 
1211 418 20073 676 1425 15064 11736 859 18088 
18587 1339 10610 21244 16644 21049 9447 15059 3089 
16259 3552 5576 6209 10341 20499 16378 1924 2295 
2969 20767 14104 4715 2513 16221 4151 7457 19523 
15353 20894 3637 6745 8310 1807 17845 18307 19449 
7316 9548 9139 5178 21360 9051 2633 21575 560 
1302 4659 12014 3235 2065 3532 20937 11678 10046 
16241 13948 13734 17501 9400 18613 9348 16037 2209 
15964 4722 6991 7313 1756 17793 18417 10582 20744 
21130 257 20775 2161 16112 10430 7529 2239 6629 
2210 6134 17734 6183 4955 9749 17516 10627 11957 
966 12193 10292 1017 8744 21311 7229 21554 3716 
16608 9064 6390 10884 18758 9126 11242 19267 4852 
10103 14495 4211 5514 657 5517 7238 3986 17448 
3141 4863 15783 14220 21139 633 15256 3187 7441 
12707 4169 3642 5080 885 2782 6895 17043 3469 
7748 6189 14632 19226 18144 6442 102 14160 14695 
1048 15287 1450 7940 2111 10293 4646 12636 2328 
1228 3053 2693 4412 6528 169 3468 33 2123 
9239 10743 3497 12285 16923 14138 8050 15471 3918 
2039 6664 388 1080 17887 6341 12667 16341 18357 
19472 4362 11083 14548 15503 21869 6942 1197 3181 
1932 5 43 3853 13426 21338 6267 17053 21400 
17780 8676 21208 3185 8690 21808 16629 2020 3967 
214 2280 5403 4963 12231 5895 548 10553 15919 
18944 15907 11563 12005 986 3904 6726 76 1044 
16790 848 17715 20320 20606 7017 8318 2742 3582 
3850 2932 6277 420 1966 21714 12462 13717 13725 
4824 18408 9213 21160 12850 12407 17921 20263 20869 
12568 16476 8506 126 9296 4331 382 13148 15681 
10955 21674 8678 2773 8512 2567 5369 21257 655 
5068 6331 3600 10670 2151 2641 1776 20538 2925 
9764 10837 10480 12635 7891 8746 14241 7677 7548 
7572 3602 15415 1091 3575 11040 10135 4213 16492 
12502 20890 16138 1713 20479 4398 6812 6998 593 
21647 4173 18199 11599 9364 16339 14432 12768 6910 
13235 122 3652 4283 2820 6790 2169 5873 20530 
16509 7009 9582 11946 1564 8748 292 6364 10490 
77 6852 7765 432 3427 20733 7047 4201 8649 
5698 1761 1014 1454 4107 6583 19363 1075 3988 
1175 14287 425 18797 11879 18090 18213 13939 14703 
6665 2340 17942 4073 7273 2399 4414 1059 3162 
7036 7642 2687 11162 11200 9892 7709 2130 6048 
921 6911 6404 3854 3937 9266 17197 594 11622 
15917 6391 5203 4306 6613 6970 2922 3699 2343 
18901 15362 9224 19943 20546 3054 18435 13411 19332 
5711 3163 1817 2940 1746 14788 4345 1539 17404 
9716 19100 17380 8907 10870 7755 3318 5670 12277 
4688 5817 2862 4258 16379 15459 15161 3038 3611 
7809 10429 14489 11299 9366 13276 1187 1322 8717 
3483 603 4254 10266 9219 18766 7362 21246 21471 
11348 20341 16030 17317 4898 7676 5969 1668 890 
19179 5701 118 14578 6759 9215 16791 8108 21155 
20887 5604 11757 16071 5869 13520 10749 146 17822 
409 4977 5664 2053 20063 8163 13763 115 14655 
19270 21247 14019 20729 16531 10238 10047 10020 2498 
15451 2281 5594 5909 17231 15744 7216 20940 3623 
21287 6928 16685 4369 16230 13256 16697 9248 9271 
3563 1754 161 17406 4488 2465 4378 5175 18776 
4322 3789 15413 9546 8021 10972 18642 10084 18076 
12300 2425 4856 19061 21743 5962 16389 20510 6649 
341 13891 12416 5510 15546 2526 16243 4145 7070 
4672 6844 11071 3683 21094 2419 19805 21996 21370 
15975 12630 9098 2294 18855 7098 3367 4929 5600 
11104 3730 2715 2531 5708 9039 1296 21864 12075 
19977 14321 217 13465 20419 21672 5382 11106 12814 
20034 2541 3674 2241 16707 18829 14750 13241 16606 
12290 16396 6709 3671 6785 1942 1178 5772 189 
10591 3447 14092 16469 16574 16301 12537 597 17439 
15800 18286 17797 14853 18965 12260 3975 17566 3722 
3580 11188 5570 1129 7421 17703 12155 12365 14179 
15739 15531 14449 13480 16472 12979 15594 8261 15802 
3176 20103 7141 19955 5338 10093 6493 6126 12480 
5239 14461 11377 17045 20339 15846 7164 10615 3608 
20217 4273 4755 4674 2460 2183 14423 2843 16865 
18791 20919 5108 19028 17622 19354 7340 7351 987 
4679 18725 13888 1416 15996 19082 8633 14867 20575 
8543 19724 15124 14751 12207 10908 8417 1606 19455 
20769 16939 7284 4293 12110 1994 18066 20237 6520 
16663 8239 20679 14353 12855 1755 2414 11173 20216 
9227 5636 6459 6116 1547 3676 21422 12556 9017 
18371 4763 9651 1297 12413 12108 20168 14516 22000 
13230 20567 19908 21253 1961 12676 4954 6053 7280 
6447 19457 14232 1494 16993 17945 18025 10634 3184 
11199 10133 1170 1039 18202 7317 8558 11769 11316 
2145 21230 17373 11220 16849 9964 2410 11798 21569 
13378 7718 9355 14502 17229 8765 6165 9755 4842 
6281 5389 1928 11774 6156 13468 17971 20258 15998 
19007 13915 8867 19815 18955 412 9286 2926 19275 
21515 694 19971 5831 19459 1899 14715 822 12475 
15924 21621 7078 1739 6007 5469 12657 11824 4534 
6642 6907 17319 14455 19233 15564 1011 13890 15098 
9142 500 3113 19154 16160 2821 11080 9588 19317 
8505 6545 6479 17929 21118 8911 5038 16842 4124 
4660 6621 2711 5010 19120 9868 9871 8499 16904 
1769 15208 2818 407 5707 3073 4821 764 5091 
11632 3310 6773 17693 16104 3647 3880 3661 4560 
6997 5146 16076 17791 363 6375 2726 5941 7607 
1419 241 17159 3717 12126 10005 5685 7469 6566 
5475 3109 4387 5133 15070 4111 2723 6352 906 
7029 5798 3297 2580 3936 2344 6353 4108 1528 
2118 11559 5472 4725 3796 333 843 2021 591 
7601 5229 7668 1212 4870 2182 3287 5986 4848 
2240 6552 3931 4806 3366 3406 6028 14555 6247 
2495 3720 1947 5689 2550 2443 6974 6274 10121 
7747 4603 3271 1805 5954 7129 3797 4008 21544 
168 7672 3823 2364 2386 3541 469 10416 14370 
8549 5398 11202 2307 2803 7303 835 4291 14837 
10777 8643 8344 8937 16992 5437 19442 13525 13257 
8635 8376 91 1636 5710 1682 4494 21831 13364 
17021 8235 9705 19760 17752 17619 16013 18111 15683 
19286 17939 13651 16191 13685 17016 611 11761 19039 
400 3577 1074 4012 5056 13373 21215 5019 17563 
18473 12699 555 18157 6918 16741 21654 527 11927 
21895 4371 4316 658 17054 2441 18346 3066 10851 
10666 13021 16876 21030 18534 16709 13141 10798 19558 
18816 19243 20939 10160 11304 18739 8145 3614 15458 
4666 7762 7433 2473 18531 14710 14472 7082 10840 
9428 7863 16327 11228 19387 10994 3071 17272 18184 
10073 12389 21945 7715 8137 13002 4871 6662 5564 
3349 16721 14348 17669 19903 17685 19009 18058 10515 
19600 11618 20088 12479 19559 13213 16787 4095 18688 
6029 7202 3088 5477 6152 2645 5705 16984 9703 
17350 12019 17195 11970 13423 4304 9247 8469 18403 
20308 19686 15647 16573 14102 18051 15438 1872 3959 
10705 4530 21516 19212 8888 21861 13854 9867 20516 
10809 20242 10427 9212 12474 2887 8368 8201 15635 
5624 6602 7212 19418 20319 7432 16884 11833 13123 
17305 17214 17393 3700 20864 19211 15888 18273 10449 
18850 6122 6106 3641 5318 6317 11060 11596 5181 
2206 3530 20615 11519 9207 2296 5881 15156 10409 
13118 8268 11929 9446 13648 16186 19842 17034 13780 
7909 15585 16171 7456 17204 19657 16344 13878 20434 
20458 5157 20891 6450 2883 18482 6797 18490 2479 
20966 138 12459 6633 21348 2172 10663 7190 4113 
689 4450 9198 19639 167 9235 20609 8591 2376 
13513 13334 15470 10134 10010 11752 21961 9699 7211 
18396 6922 18132 8957 10672 12070 8792 10203 12505 
4541 7920 15567 12953 179 17951 8228 7518 14971 
5254 183 9976 7174 4612 6376 250 4925 18233 
9332 14059 6608 16680 14606 20106 17919 1231 3520 
17293 12457 13342 18008 17367 9830 11114 12446 1329 
377 2018 5949 1509 1792 2762 17507 3939 21431 
18647 20568 12501 12236 14529 20260 14910 14006 20704 
14044 12482 8054 16568 9502 10855 18704 4288 17954 
9457 15780 3665 13158 12324 278 14659 20420 7669 
1292 3801 11344 6024 11686 9200 9675 12495 15065 
19511 9757 18116 21797 16616 10088 11247 2507 10540 
15309 19859 1188 19262 20267 5669 6212 2750 17867 
4392 693 15966 6411 20763 15760 9719 13497 14156 
5746 11636 9012 17650 8914 16293 12617 15191 14441 
18622 16496 21115 2050 13389 9295 4182 6704 2 
6477 6560 11099 20726 15813 2259 17042 15246 13683 
4926 11811 10920 20449 9568 16159 20439 12952 10223 
8106 12695 10302 18018 21183 8516 17722 1279 7860 
437 9660 20105 6422 4724 6420 17378 21630 540 
17047 11858 15700 11495 12182 9980 739 8741 3945 
6147 15361 911 4942 16662 17595 13325 14214 8121 
20083 17257 6049 10524 20324 13299 15198 12450 18295 
19899 10171 13908 16585 12506 7661 4133 6600 601 
10978 3204 4061 20578 19775 180 21794 11915 12622 
13391 12598 17068 7865 11203 9467 12436 20960 12605 
8531 19964 3492 5364 10426 9519 15586 4261 5276 
6383 3491 8563 20989 17897 19452 18626 16077 15079 
19155 21148 9835 5084 225 16500 14302 17389 19855 
20764 13548 10319 20304 13710 3791 4153 337 777 
4513 4771 3179 3213 3929 17025 9903 10544 8384 
18069 9995 14291 13093 1515 15639 8320 10072 10633 
14811 17978 13568 19235 4467 4866 3028 4921 14337 