# vtk DataFile Version 4.2
Generated by LIGGGHTS
ASCII
DATASET POLYDATA
POINTS 21992 float
-0.00858724 -0.0389872 -0.0484057 -0.00631976 -0.0379439 -0.0487491 -0.00627123 -0.0216286 -0.0487532 
-0.00265135 -0.0146635 -0.0490502 -0.00290286 -0.0061628 -0.0489773 -0.00185089 0.0334646 -0.0491082 
-0.00702079 0.0495905 -0.0486775 -0.00550509 0.0528935 -0.0488326 -0.0055702 0.0548816 -0.0488263 
-0.00445101 0.058858 -0.048663 0.00659053 0.0871205 -0.0487399 -0.0079027 0.0951194 -0.0485431 
-0.00202899 0.0991988 -0.0491289 -0.0167245 -0.0992009 -0.0462649 -0.00610558 -0.0992035 -0.0470607 
-0.0143332 -0.0981841 -0.0459379 -0.0106169 -0.0981826 -0.0469465 -0.00726893 -0.0969313 -0.0476309 
-0.00387474 -0.0981852 -0.0479785 -0.000535382 -0.0981815 -0.0463915 0.00268576 -0.0981812 -0.0480797 
0.00805806 -0.0981819 -0.0474547 -0.015781 -0.0948801 -0.045495 -0.0123089 -0.0949857 -0.0465684 
-0.00298878 -0.094661 -0.0480722 0.000607649 -0.0951937 -0.0481345 0.00538274 -0.0957464 -0.0478309 
0.0101968 -0.0950534 -0.047035 -0.00896793 -0.093741 -0.0472867 -0.00473205 -0.0914777 -0.0478955 
-0.000137037 -0.0916326 -0.0481238 0.00331773 -0.0927611 -0.0480229 0.0077217 -0.0924295 -0.0475163 
-0.0114014 -0.0910927 -0.0467879 -0.00765311 -0.0906456 -0.0459107 0.00344539 -0.0891278 -0.0480132 
0.00555963 -0.0912619 -0.0486746 0.00903496 -0.0890451 -0.0472666 0.0120179 -0.0910274 -0.0466345 
-0.0154329 -0.0865606 -0.0466707 -0.0139621 -0.0886264 -0.0460587 -0.00992706 -0.0876992 -0.0470866 
-0.00592457 -0.0880403 -0.0477688 -0.00234485 -0.0887459 -0.0481131 0.00266791 -0.0870406 -0.0463655 
0.0116906 -0.0863547 -0.046728 -0.0162568 -0.0844714 -0.0453448 -0.0125212 -0.0851664 -0.0464979 
-0.00661955 -0.0840724 -0.0476964 -0.00319084 -0.0852151 -0.048054 0.000343177 -0.0861577 -0.0481238 
0.00413952 -0.0855581 -0.0479452 0.00775109 -0.0856526 -0.047516 -0.0107485 -0.0817334 -0.046932 
-0.0038891 -0.0816489 -0.0479771 0.00368641 -0.0819494 -0.0479874 0.00803188 -0.0815371 -0.0474088 
0.0117647 -0.0821046 -0.0467091 -0.00731812 -0.0804833 -0.047613 0.00186413 -0.0788053 -0.0481346 
0.00559409 -0.0788555 -0.0478123 -0.0139488 -0.0783453 -0.0460626 -0.0104427 -0.0781151 -0.0469881 
-0.00711654 -0.0768081 -0.0476462 -0.00370682 -0.078018 -0.0479994 0.0119087 -0.0784208 -0.0466512 
-0.0147491 -0.0745516 -0.0458082 -0.0129635 -0.0760289 -0.0474294 -0.0111207 -0.0742632 -0.0468422 
-0.00431751 -0.0744214 -0.0479317 -3.32805e-05 -0.0755532 -0.0481215 0.00371381 -0.075677 -0.0479862 
0.00595304 -0.0743537 -0.0474248 0.00828687 -0.0755523 -0.0474037 0.0113841 -0.0758507 -0.0466759 
-0.00772154 -0.0731692 -0.0475421 -0.00325374 -0.0709245 -0.0480489 0.000366736 -0.0712631 -0.0481231 
0.00502029 -0.0719305 -0.0478663 0.0086794 -0.0708712 -0.0473407 0.00921466 -0.0732627 -0.048264 
-0.0145954 -0.0683214 -0.0458589 -0.0070611 -0.0694839 -0.0476526 0.00309723 -0.0688471 -0.0480481 
0.0122704 -0.0691287 -0.046566 -0.0111015 -0.0681513 -0.0468554 -0.00775264 -0.0669976 -0.0472286 
-0.00535472 -0.0661315 -0.0478403 -0.00194338 -0.0675283 -0.0481143 0.000961733 -0.0670077 -0.0457615 
0.00659609 -0.0679161 -0.0477221 -0.0133279 -0.064838 -0.0462493 -0.0093931 -0.064961 -0.0472012 
-0.00205781 -0.065632 -0.0463191 -0.00123208 -0.0639201 -0.0481163 0.00251697 -0.0647103 -0.0481036 
0.0131648 -0.0637245 -0.046301 -0.0165445 -0.0631208 -0.0452566 -0.00658383 -0.0627067 -0.047698 
-0.00339583 -0.0609881 -0.0480292 0.00279722 -0.0611039 -0.047724 0.00639606 -0.0615747 -0.0477395 
0.00989174 -0.0623496 -0.0471004 -0.0135253 -0.0606126 -0.0461886 -0.0100616 -0.0599087 -0.0470636 
-0.0065791 -0.0590614 -0.0476952 -0.000242189 -0.0591602 -0.0481288 0.00696681 -0.0579857 -0.0476651 
0.0104988 -0.0585069 -0.0469874 -0.0132211 -0.0568818 -0.0462821 -0.00973231 -0.0562928 -0.0471358 
-0.00338827 -0.0573471 -0.0480286 0.000256144 -0.0555581 -0.0481311 0.00383276 -0.0561819 -0.0479885 
0.0121713 -0.0553048 -0.046587 -0.0119659 -0.0550445 -0.04771 -0.012837 -0.05295 -0.046396 
-0.00631397 -0.0552121 -0.0477267 -0.00289276 -0.0537447 -0.0480807 0.00208385 -0.0543098 -0.046682 
0.0083659 -0.0546304 -0.0474033 -0.0162291 -0.0521241 -0.0453482 -0.00929939 -0.0526271 -0.0472156 
-0.0066664 -0.0526853 -0.0471432 -0.00500531 -0.0507959 -0.0478668 0.000220338 -0.0516201 -0.0466142 
0.00354078 -0.0521556 -0.0479992 0.00734636 -0.0509682 -0.047602 0.0107859 -0.0519609 -0.0469341 
-0.0157501 -0.0485213 -0.0455075 -0.0116049 -0.0495169 -0.0467547 -0.00806387 -0.0488782 -0.0474787 
-0.00076239 -0.0484617 -0.0481228 0.0106288 -0.04767 -0.0469586 0.0119997 -0.0497758 -0.0477012 
-0.0134728 -0.045772 -0.0462016 -0.00994058 -0.045793 -0.0470666 -0.0041892 -0.047253 -0.0479605 
0.00260734 -0.0463539 -0.0480852 0.0070626 -0.0467499 -0.0476601 -0.0165915 -0.0428538 -0.0452346 
-0.00639523 -0.0443752 -0.0477178 -0.000245337 -0.0440957 -0.0481235 0.00639949 -0.0431726 -0.0477398 
0.00987021 -0.0441072 -0.0471034 -0.0131904 -0.0421446 -0.0462954 -0.0100921 -0.0400164 -0.045699 
-0.00965778 -0.0421652 -0.0471444 -0.00651259 -0.0404304 -0.0477066 -0.00341626 -0.0423114 -0.0480286 
-0.00434669 -0.0405185 -0.0461961 -0.000284421 -0.0404587 -0.0481208 0.00120309 -0.0423899 -0.0461038 
0.00289775 -0.0422453 -0.0480708 0.0118249 -0.0410583 -0.0466858 -0.0161412 -0.0392445 -0.0453775 
-0.0119352 -0.0384305 -0.0466745 -0.0034152 -0.0385583 -0.0480336 0.00377052 -0.0387104 -0.0479903 
0.009594 -0.038223 -0.0471676 -0.014632 -0.0367879 -0.0468792 -0.00826993 -0.0367752 -0.0470437 
-0.00504068 -0.03531 -0.0478604 0.000504688 -0.0369064 -0.0481253 0.0036537 -0.0350773 -0.0479958 
0.0107982 -0.0348038 -0.0469417 -0.0145279 -0.033588 -0.0458865 -0.0111619 -0.0345789 -0.0468443 
-0.00791099 -0.0331037 -0.0475108 -0.00180279 -0.0336662 -0.0481108 0.00670273 -0.0331003 -0.0477134 
0.00929241 -0.0330461 -0.048252 -0.0140649 -0.029884 -0.0460202 -0.0106686 -0.0308024 -0.0469401 
-0.00469276 -0.0314576 -0.0478934 -0.0013869 -0.0299609 -0.0481172 0.00151555 -0.0321428 -0.0481273 
0.00442551 -0.0297558 -0.0479203 0.0094124 -0.0301791 -0.0470122 -0.0101204 -0.0283799 -0.0478988 
-0.00749322 -0.0291535 -0.047594 -0.00421685 -0.0276006 -0.0479454 0.00152267 -0.0275718 -0.0481343 
0.00744623 -0.0271664 -0.0475729 0.0131635 -0.028367 -0.0462869 -0.0148634 -0.0246926 -0.045772 
-0.011944 -0.0266644 -0.0466753 -0.0085381 -0.0255981 -0.0473838 -0.00106682 -0.0246701 -0.048115 
0.0110846 -0.0254452 -0.0468741 -0.0120745 -0.0224348 -0.0466469 -0.00854819 -0.0218541 -0.0473698 
-0.00530954 -0.0238921 -0.0478293 0.00193203 -0.0226097 -0.0481355 0.00505619 -0.0244405 -0.047859 
0.00838964 -0.0230657 -0.0473898 0.012227 -0.0220069 -0.0465619 -0.0165128 -0.0208664 -0.0452609 
-0.00336574 -0.0207751 -0.0480392 3.844e-05 -0.0195104 -0.0481253 0.00787786 -0.0194965 -0.0469445 
-0.0164839 -0.0171084 -0.0452684 -0.0135238 -0.0190043 -0.0461998 -0.0100034 -0.0184116 -0.0470714 
-0.00643936 -0.0188684 -0.0477273 -0.00276289 -0.0171904 -0.0481 0.00358869 -0.018705 -0.047996 
0.0107938 -0.0173019 -0.0469292 -0.013109 -0.0153879 -0.0463228 -0.0108286 -0.0160706 -0.0479423 
0.000644996 -0.0159295 -0.0481215 0.00748269 -0.0159387 -0.0475747 0.0131992 -0.0146509 -0.0462795 
-0.0170633 -0.0140659 -0.0458079 -0.0150143 -0.0123479 -0.0457243 -0.00812396 -0.0132084 -0.0474616 
-0.00458389 -0.0124908 -0.0479042 -0.000313799 -0.0123759 -0.0481221 0.00361907 -0.0138514 -0.0480052 
0.00965426 -0.0130428 -0.0471533 -0.0115134 -0.00931931 -0.0467666 -0.00737147 -0.0096572 -0.047613 
-0.0042634 -0.00995334 -0.0459166 -0.00302156 -0.00921033 -0.0480816 0.0032348 -0.0106946 -0.0462734 
0.00622394 -0.00930953 -0.0477684 0.0126229 -0.0110604 -0.0464506 -0.0157039 -0.00878236 -0.045523 
-0.00926003 -0.00648995 -0.0472314 -0.00725801 -0.00748154 -0.0457801 -0.00567304 -0.00644888 -0.0478004 
0.000527079 -0.00826258 -0.0481254 0.00987453 -0.00793136 -0.0471023 -0.0129082 -0.00598693 -0.0463826 
-0.00718777 -0.00535073 -0.0459846 0.00462886 -0.00606993 -0.0471877 0.0078619 -0.00421065 -0.0474912 
0.0116495 -0.00476338 -0.0467424 -0.0154574 -0.00352488 -0.045597 -0.0110287 -0.00291326 -0.04686 
-0.00748798 -0.00330417 -0.0475888 -0.00446864 -0.00264539 -0.046028 -0.00307519 -0.00175381 -0.0461203 
-0.00309774 -0.00351557 -0.0480704 0.000864393 -0.0029572 -0.0481367 0.00467188 -0.00249689 -0.0479019 
-0.015766 0.000249239 -0.0454873 -0.0122791 0.00054451 -0.0465727 -0.00873415 0.000124861 -0.047333 
-0.00516156 0.000721035 -0.0455585 -0.00515654 -0.000526839 -0.0478536 -0.00154452 -0.000232147 -0.0481175 
0.00276828 0.000600682 -0.0480706 0.007575 -0.000311375 -0.0475526 0.0157954 0.000835706 -0.046573 
-0.0145828 0.00367131 -0.0458593 -0.00617679 0.00296174 -0.0477437 5.6152e-05 0.00302925 -0.0480416 
0.00865605 0.00322778 -0.047341 -0.0110898 0.00401984 -0.0468626 -0.00811481 0.00602403 -0.0474583 
-0.00365571 0.0055769 -0.0480053 0.00340289 0.00445746 -0.0480121 0.00673165 0.00629024 -0.0477083 
0.0116738 0.00516679 -0.0467327 -0.0140853 0.00848923 -0.046014 -7.22509e-05 0.00666118 -0.0481271 
0.00335946 0.0089093 -0.048016 0.01011 0.00843134 -0.047062 -0.00944327 0.0109484 -0.0471963 
-0.00631593 0.00917177 -0.0477322 -0.00387435 0.00951936 -0.0461793 -0.00348143 0.0114357 -0.0480215 
3.76117e-05 0.0103912 -0.0481283 0.00685338 0.00992553 -0.0476864 0.0130098 0.010503 -0.046342 
-0.0128418 0.011976 -0.0464001 -0.00682848 0.0134335 -0.0476707 -0.00127048 0.0124834 -0.047083 
0.00061722 0.0139806 -0.0481351 0.00441537 0.0126104 -0.04793 0.00937774 0.0129271 -0.0471956 
-0.0102799 0.0145213 -0.0470192 -0.00324219 0.015171 -0.0480459 0.003767 0.0161851 -0.047986 
0.00737236 0.0159843 -0.0475922 -0.0131405 0.0173621 -0.0463122 -0.00968966 0.0181469 -0.0471393 
-0.0062203 0.0172352 -0.0477337 -0.00163461 0.0168059 -0.0467421 -0.00282903 0.019208 -0.0480947 
0.000433776 0.0176128 -0.0481188 0.0108701 0.016709 -0.0469122 -0.012154 0.0208493 -0.0466277 
-0.00936414 0.0207458 -0.0472613 -0.00639489 0.0210707 -0.047725 -0.00322943 0.0202686 -0.0457472 
[...]
POINT_DATA 21992
FIELD FieldData 6
id 1 21992 int
15853 10913 21275 19358 10352 21693 18628 11513 16918 
17910 21196 17152 8272 13420 14776 5385 2613 6597 
7301 5344 4140 1308 607 5301 1931 4673 5950 
1016 6508 6027 5728 6110 626 982 7711 5456 
15488 4110 3740 12275 733 6818 2830 6656 20943 
4691 5777 559 3000 5833 1232 6828 1506 3754 
7491 4159 722 5901 5715 1648 6843 4235 785 
1841 6446 7038 958 9134 3370 3002 3961 1220 
21804 2028 12863 2795 3760 7563 5819 1221 13632 
2614 320 2644 3240 262 11078 4098 6030 6168 
2000 4043 7500 18609 449 2489 3165 5589 618 
2289 1404 5702 5944 2810 6957 6765 7645 4202 
2699 4335 1217 5049 378 6570 1069 20730 6254 
6286 7282 15798 1993 4758 5778 18651 3632 6103 
4736 1190 6243 6251 7756 1677 319 524 8920 
5692 3809 688 7071 3103 2858 4016 2271 6300 
3156 7121 20169 5077 3991 2119 18515 602 10142 
4592 1696 2144 5730 1374 3890 7415 17099 5280 
5524 6980 4702 3068 4054 3243 635 4057 6695 
19856 1537 7287 7497 3949 224 537 1191 15817 
155 2790 5072 5889 1468 7591 457 1831 6596 
1795 1177 4252 3214 5334 2791 970 2197 6418 
823 1555 4877 4801 2871 5523 4692 5105 2143 
6559 338 19464 716 5096 2738 13794 4310 954 
1028 1613 1549 4119 7629 2979 19408 4823 2011 
6478 448 974 5006 21845 2695 2508 6651 176 
17001 5317 4187 2468 2794 5719 3364 9451 9606 
2108 5578 7547 5917 1625 73 21278 776 3621 
6407 4303 16405 3448 7452 6336 1557 4346 2766 
4751 2459 2027 3546 6355 5794 2876 6902 1546 
4354 20651 5575 5713 3616 1510 2384 1053 15804 
3992 7631 3548 1579 4593 381 1383 994 1926 
7125 21474 5776 1787 3999 478 18659 3865 20947 
2893 1375 1104 2622 18834 4457 6230 4084 6046 
7626 1500 4189 3799 7580 15999 3756 3098 4546 
1658 14185 1866 2792 3267 5067 4021 6960 2155 
2148 5502 12191 2023 2332 215 2341 19137 6188 
6551 1022 3506 9857 3891 6993 312 6668 6959 
6148 9958 5168 3998 4793 685 4520 2846 6996 
761 699 4981 5678 1712 5760 629 3459 1936 
2673 4312 1973 758 20836 1476 5654 6322 2214 
7266 5695 3036 157 744 10852 873 1764 2100 
5341 3133 4220 19095 532 3957 9262 1529 14634 
881 4361 12487 6118 4813 6232 14317 5609 5747 
21266 4869 1321 285 6343 6862 14942 4837 6532 
451 2752 11212 5781 20617 2618 7037 5457 21618 
4991 5315 14381 7703 3274 2839 11420 6062 5433 
3694 9557 6480 4336 5336 7717 7025 7752 2204 
5768 6917 1384 3713 3725 7079 6202 4341 6323 
1470 6605 3658 4183 21608 3748 7487 5536 5372 
5643 1681 15469 4154 7101 998 7610 951 4931 
5337 5190 813 4730 2411 2837 4158 5988 7105 
10369 5852 446 7192 7602 86 517 5312 5859 
5264 1033 1304 6213 2956 2351 281 6931 4433 
3039 5934 1357 2536 17911 4661 4277 3296 12106 
438 879 6319 5883 6755 13401 2989 1411 5313 
6429 734 9095 4656 6265 792 354 5814 2230 
7427 2102 5095 3561 5590 6045 5621 799 1695 
6734 4651 6308 4911 7039 5423 1763 5694 4970 
12644 7291 5087 3032 6549 4393 19127 1070 6158 
3275 5766 515 6052 4613 17810 7555 21387 6683 
4575 7397 2811 2590 12012 19306 4407 12820 6255 
845 4760 4191 4295 2767 145 16810 1914 7077 
14650 1073 4726 6780 3220 21757 1352 3401 5216 
2113 7566 17026 2855 5699 2189 7454 15580 13140 
9443 2560 5063 3129 773 4676 3524 5415 297 
1245 520 12561 15905 8383 11538 7375 1335 2481 
2278 11490 13732 6439 3099 466 666 17421 3805 
2253 2628 5030 11682 3705 6421 7439 10698 2440 
20486 4188 3372 4468 7482 10344 6760 4171 3012 
5202 13302 3888 4820 6170 4103 5271 7488 4781 
4007 4403 2874 8795 5440 7622 413 1798 21029 
5240 7225 3913 20499 1924 5362 2657 4588 18174 
4076 6764 7169 3755 1702 5874 2854 959 3907 
107 3557 978 6173 17170 7003 19637 18091 5162 
12764 1332 6015 3174 6991 6626 1408 4890 17431 
1027 17903 4632 3117 5409 15323 259 3784 426 
1687 7570 2315 6979 6941 3874 4368 5261 7743 
16658 1273 229 19900 2946 3326 2595 1392 7264 
2909 6937 3303 5592 19219 1828 1853 1323 171 
4142 1960 14192 2008 4922 5446 2487 10803 3535 
33 2813 1168 4761 2873 4709 3251 4033 4232 
19368 4727 1594 4930 2865 4716 12068 6394 3488 
295 2190 740 19374 5898 698 2211 18367 7367 
3268 1002 20417 4749 9658 16284 2504 1504 11256 
510 2086 2380 6240 21249 1850 20961 21615 17892 
2192 3901 288 5156 7095 2637 3816 2320 1415 
269 2138 10583 16847 996 4579 4229 480 1420 
2342 3592 867 18127 4587 3178 2198 3660 359 
17654 10400 15376 459 19808 15553 11191 5110 9347 
1588 1614 5018 346 26 20095 3 6580 5129 
194 3876 187 2698 7480 2316 827 5976 4221 
6423 4475 6583 2213 1626 1992 6770 1040 6333 
1640 3861 4292 781 255 6837 1559 3162 5413 
4343 815 4090 3854 1725 3010 383 956 862 
7436 7489 3254 4047 3233 2083 2660 2710 1826 
1157 6908 760 2906 5863 6038 1675 4086 2977 
2862 12694 6947 7463 7153 4648 3016 3522 397 
4997 3009 2485 1072 3288 6701 3362 1824 7389 
1492 3487 339 7701 7671 2053 7113 3438 4639 
5374 1974 18961 794 7536 6026 6720 4378 3997 
7521 29 2606 5659 335 6593 2054 9365 6379 
1576 100 1165 2363 496 4052 2164 4672 10305 
16114 5584 4987 5213 2404 5785 5886 2715 1812 
646 5020 7150 2960 3909 741 2405 11699 6006 
4792 1149 5016 6047 6313 3674 1359 19702 14258 
6185 271 4344 7421 11482 5260 21822 1169 8533 
19959 5356 280 4390 16924 2131 3688 6717 774 
6361 1394 1989 3217 5499 13034 2986 5526 3836 
6733 6952 987 6326 19146 4551 19619 1252 3877 
1734 296 20237 4647 6669 1193 6102 14637 3266 
7311 21164 4114 10782 3953 6010 6966 1863 5963 
20982 7565 7665 2735 4937 5439 1821 11769 2145 
14905 21710 749 5935 105 19887 4063 3286 1455 
1928 914 2262 16369 4502 17544 11861 1893 4376 
6691 13350 4953 3248 7657 2669 5469 1531 1094 
14828 3389 1385 7160 6553 6743 19154 4484 5045 
4809 3726 10914 1933 7114 5002 14065 5010 200 
6670 6264 7745 4604 4256 4411 6954 8977 6977 
1431 5326 6302 3880 140 19623 2097 5722 6149 
6445 241 4337 3473 7213 6443 1634 5799 1772 
1198 11446 3618 4908 7528 6324 7029 933 3027 
5207 10535 3928 4708 566 2634 1528 1952 4452 
142 4388 3638 452 2566 7601 7611 6645 2325 
5447 897 5249 4511 2182 1779 4408 7785 5703 
7569 7008 2284 541 7172 4320 7461 6043 6428 
2012 4505 2443 6274 14684 1446 20129 6114 3701 
495 7508 3314 1767 3797 21544 7299 5411 896 
6874 2364 2386 1745 1151 6735 2860 17135 5048 
1222 835 18283 4595 11564 5454 7774 1743 7538 
6385 2025 12306 4494 7609 10709 7049 4810 2224 
2174 5028 7732 6175 5056 4899 5224 1216 19036 
15206 1430 6194 5773 658 17054 1196 5047 7680 
3319 6810 2911 4175 2889 5959 5635 3411 1596 
4240 1258 11760 12209 21056 10297 1667 6706 3172 
2163 6152 2645 12467 7653 6492 12620 3375 16412 
7720 1704 5583 4895 5452 18093 467 9490 6576 
7943 20358 8718 4239 42 3272 6568 6305 15772 
4267 4811 5015 20517 7005 11152 3284 825 3371 
3221 5420 18482 11596 5181 119 475 1646 11255 
7175 931 7739 3354 6224 6797 18024 11366 3987 
14595 6556 3216 5232 724 5151 18265 3229 10839 
3323 11275 4150 13087 19027 5853 5628 18396 6922 
3499 6631 3380 15207 5662 4249 19895 8960 7437 
3792 4079 7541 250 20073 1425 4382 11736 15061 
11826 2035 15237 5541 1930 4889 4845 1148 10341 
2295 6312 13292 7335 134 4203 15353 19523 20894 
3637 1610 1807 362 1103 3126 3235 2065 10551 
1565 7744 6925 775 3594 4233 2935 4805 6560 
7313 4222 13728 6936 5424 4112 3228 6134 17734 
4091 7760 4738 2760 6731 6001 583 12109 21311 
7229 17448 16174 16587 2690 4434 18274 10978 5517 
7238 3986 20232 4863 20927 7481 3439 1250 6757 
7307 2714 3204 2782 6895 3994 5616 8223 6876 
2397 416 4771 3179 7571 10410 1450 2111 419 
19016 3304 7684 4886 1808 2569 3468 2123 9239 
20844 3497 10282 1524 7954 3338 6789 17887 1080 
10902 20825 8105 16341 1443 16034 9901 9601 72 
10301 5060 3773 3365 5275 7706 18436 7554 43 
3853 13426 21338 9968 12986 15068 16340 6903 5844 
10235 5210 17453 5403 4963 12021 4081 20320 15722 
21649 10024 7418 8631 5476 4122 6136 5943 5991 
76 1044 848 9938 9093 9966 18559 14252 1925 
17820 3534 11069 3715 1966 5462 10955 15100 4824 
7929 2567 11616 3383 3838 17552 5128 5779 5148 
3869 9296 4331 382 13148 729 20792 20636 1227 
4649 18600 1552 4055 18044 6086 10670 2151 1776 
19369 1098 14436 8220 8746 1728 12872 8799 192 
7447 789 20018 3125 3602 15415 1091 3575 12539 
9787 14653 8240 3091 6164 98 2942 6838 10725 
3409 13800 13380 16754 10962 5001 7391 3786 6790 
2169 3427 1679 7024 4067 2449 5948 2676 6005 
3852 19363 7765 771 7047 13838 4822 4915 4328 
7272 622 3988 6647 1175 6056 1123 5733 15775 
6665 21698 2340 4787 516 5509 6044 865 2532 
1423 1940 6512 4274 1418 20265 2687 11506 458 
342 4458 5173 1440 3937 9266 594 5373 3056 
1553 7540 7428 3567 6970 2922 3699 6176 3054 
1023 17304 2921 6346 14788 4345 4653 17404 21228 
2664 1497 1187 985 1483 5547 5817 4258 7636 
871 1985 1879 2530 5289 349 6659 603 4254 
3154 9219 18766 7362 5890 18662 7084 5219 3579 
10584 5701 6759 9215 4037 1701 4800 9597 11457 
2264 14655 3293 17995 682 7232 6872 7594 344 
5909 11943 12789 21287 19399 15413 6928 4369 16102 
5549 2066 161 18460 11144 5310 3613 15744 4322 
6649 6660 19078 2945 3620 5569 1666 4856 5962 
14607 3234 12136 864 7621 4391 18285 6844 2419 
4553 14481 9827 1484 1019 7354 6381 2840 3730 
5708 1296 4135 1371 4302 4695 11524 13533 4865 
983 4176 14144 1954 2241 16707 1344 21940 7325 
11712 13167 1656 2115 21313 1799 13826 8350 17065 
3447 14092 16301 597 9300 3915 12159 7365 17868 
5187 5104 2391 4799 2302 10093 14513 189 17334 
757 9252 16484 15771 6220 13261 14884 5790 7260 
3377 6827 2460 18929 6493 6126 3490 6231 11117 
1389 2183 2594 5466 9770 1880 5724 5012 7663 
6199 1082 6835 4003 18725 14673 10031 11547 6272 
16927 766 4737 6410 8131 6607 18066 3676 6520 
1984 20679 8239 14777 1416 8477 4512 1310 6589 
4080 3527 5622 1547 21422 9836 16031 10192 10763 
379 3361 4255 1609 3155 2447 7280 6447 19457 
14232 15384 3697 19311 20135 3184 1369 3306 3636 
4092 21230 11493 16804 16966 6808 16849 20258 1790 
13279 18046 14037 21855 14054 5267 18200 7014 6506 
4165 18523 5033 8558 11316 16349 14740 11774 6156 
1214 294 2926 4100 1209 2084 7471 12657 19459 
4618 21401 1063 19367 15637 7134 6875 5891 2554 
17276 4534 6642 11080 6907 20735 6538 2556 20067 
11379 16251 12853 5185 7400 2519 1052 2821 2623 
19317 9588 8505 355 7757 6914 4827 2775 2505 
1533 764 1627 5467 5818 3104 19593 2617 2354 
3554 3073 4821 5091 7 7318 5548 7012 2014 
3661 1289 5146 3989 21806 6184 6766 4759 15610 
3615 19896 5133 4111 3175 2276 4387 5455 15070 
787 2233 1895 4952 5560 6350 290 4308 5798 
3297 3597 506 4765 5868 6923 7772 2118 11559 
5472 6595 12424 16846 7426 9667 5286 2638 5229 
7668 5225 4830 5888 653 3069 7057 5035 3287 
5986 880 5740 3001 19841 7695 3454 3406 2420 
6028 4848 4675 1759 4212 3973 7771 69 1185 
6974 10121 7747 6939 6511 5759 16449 7543 4008 
168 2654 18895 1049 7778 3639 1271 3541 469 
4892 6871 2222 7170 5884 5171 1599 5630 3923 
4291 2080 13455 8643 5041 4004 4315 18789 6804 
3655 17268 3496 21831 4900 10777 16116 3478 18170 
20875 6617 13974 11005 7425 4214 20594 21157 17015 
13370 4115 8725 16812 19432 11802 9445 19079 8822 
10577 8292 12227 707 3684 5250 4885 834 2785 
2441 235 4545 13021 4483 19331 12194 2769 2117 
513 5761 2538 1156 2473 18346 18531 18038 12488 
10053 18262 13141 14379 11228 14110 10802 8777 19998 
20276 3453 992 5629 19296 7224 624 5564 4767 
21815 3349 4445 6758 1784 17177 11885 10975 4024 
8507 5850 2510 9927 5303 6870 7018 14133 21320 
21341 20631 16051 20416 11438 17251 5473 549 9214 
1872 3959 10705 4530 10563 21516 6040 9761 17004 
1590 19277 7577 16743 20001 5136 5989 1491 4662 
3714 6602 7212 19418 17972 21103 3309 13123 20472 
15906 16370 17309 14866 21408 18850 7262 21075 3612 
18924 8719 7026 11060 7451 5896 3530 2206 11519 
5881 8149 15156 10409 13393 9620 12483 13841 18874 
8716 16532 1922 3003 2491 3630 5268 11806 18563 
14039 2466 13542 6633 4301 17952 7736 9198 19639 
167 20066 20791 9235 2376 691 13519 9574 17816 
15282 10561 15286 14518 3934 14239 6769 424 18335 
8957 18132 12070 15278 10203 8620 4541 14215 2589 
20206 8989 13594 4851 1816 3232 6376 676 18233 
6608 15064 859 10610 15808 17293 21244 6948 9447 
3089 1897 3177 1509 16378 1792 2762 3939 2969 
14529 18088 20767 1339 8054 16644 21049 2513 3665 
4151 1525 542 4979 4487 9282 3801 6024 6745 
19511 8310 14104 21797 4715 18307 9548 16221 5178 
21575 560 5800 7651 693 15760 5746 3532 11678 
20937 17845 14440 13948 2050 7316 9348 17501 16037 
9051 10128 4503 15966 20726 15813 2259 1756 17793 
10046 18417 10582 13734 11957 21130 257 9400 2209 
2913 5939 3574 6732 4609 20105 6422 6183 6420 
17378 4955 9749 17516 10627 20744 966 15368 2161 
16009 7919 4184 15361 911 4942 21554 21794 3716 
8121 6390 9064 16608 10884 18758 9126 11242 19267 
4852 3187 21662 6098 11897 13573 2904 7381 4622 
4061 3469 3141 15783 7865 14220 21139 633 14056 
15256 6442 2458 5696 2270 7369 3491 14160 17043 
14695 7748 225 6189 5897 15089 1645 4193 3929 
1048 15287 18069 7940 14291 4646 12636 1228 3053 
4352 6244 4650 5244 10743 18357 8931 14138 16923 
8050 10293 15471 3918 9683 2039 6664 2953 7268 
11047 4866 282 15796 6341 19349 12667 19472 21400 
20946 8522 4362 11083 15503 1979 5735 15333 4617 
16000 1963 18145 6267 17053 17780 21208 8676 3185 
14859 21808 8690 2020 3967 214 6399 3510 11779 
7065 8494 12231 505 5895 21958 548 10553 15919 
18224 14478 1835 6054 5782 16790 17715 14014 14580 
20606 9075 7017 16120 9967 13150 21160 2742 3582 
3850 7782 5170 7103 421 1540 1001 1949 21714 
2311 12462 18187 13717 13725 18408 9213 16611 8772 
12850 12407 20481 17834 20869 21257 8506 7178 768 
10335 7593 2378 15681 21674 12838 8678 11982 2773 
9747 10837 6873 5369 655 21162 6331 1488 3171 
2641 2925 8512 9764 10135 10480 12635 14241 7891 
7677 3212 5298 7548 1789 13655 2809 5672 4485 
20128 11040 4213 7309 16138 511 7926 1713 3652 
2611 593 8217 1162 4173 7009 16339 9364 1056 
13235 3395 7761 4018 19121 18217 5873 12125 20530 
16509 11599 9582 14432 11946 17975 12768 292 6364 
2886 3390 2191 6852 4920 432 20733 1481 4201 
1564 8649 5698 1248 1761 1680 7606 1632 8730 
470 1075 15967 18487 1118 14287 425 18797 9350 
18090 18213 13939 14703 6424 13255 5363 8311 2436 
445 18175 17942 4073 16108 921 7273 270 5744 
6393 19703 7036 13298 703 7642 11200 11162 9892 
7709 2130 6391 6911 2741 841 2357 15621 18643 
17197 11622 7431 5867 15917 5203 21036 4464 3815 
2463 19945 20254 16248 20493 2343 15204 18901 9224 
15362 19943 20546 18435 19332 5711 3163 2659 1176 
1539 13495 16059 3562 15161 19100 8907 17380 364 
10870 13411 7755 3318 12277 2982 3464 2374 6382 
12206 16379 15459 3038 20785 3611 7809 18691 10429 
13276 19065 1322 5929 2692 11454 10266 12079 21653 
16253 21246 21471 20341 11348 16030 4898 7676 5969 
11444 3916 5922 14578 3764 16791 17486 20887 5604 
11757 16071 5869 13520 10047 2498 146 2469 17822 
2965 5717 17128 1406 718 118 14678 20063 13763 
15420 8108 17857 115 3767 14019 19270 21247 20729 
9248 16531 3563 15451 720 5661 2675 7608 7043 
18395 18421 7216 20940 3623 9480 2082 16685 16230 
13256 16697 9271 17406 4488 1523 4757 7896 17231 
5175 18776 3789 10058 2696 9546 17717 8021 18642 
12300 10084 10139 2425 1886 124 1096 18140 4896 
1147 12907 16389 20510 8000 21986 1298 9034 21996 
12630 13643 341 13891 12416 5510 7613 16243 1998 
21209 1121 11071 3683 16183 21094 19805 15975 21370 
9098 2294 18855 14395 7098 3367 4145 6417 11104 
17624 9130 21519 20547 2531 5653 9039 8173 8945 
21864 14321 12075 19977 217 13465 5382 21672 6785 
11937 9909 453 1178 605 1996 7616 21488 4678 
18829 14750 16606 13241 21195 12290 16396 6709 3671 
3580 2402 2987 6088 1585 5042 17339 10591 16469 
12537 15800 18286 5034 18965 12260 17566 3722 1434 
19667 9940 8955 18491 12155 17703 7568 14179 8804 
15739 15531 15302 14449 12979 15594 20103 12356 15846 
7141 18655 2576 7546 6510 17989 3392 1676 1330 
4237 1138 13461 16472 12480 2806 8784 20339 7164 
3608 798 7562 2300 14332 5024 13715 14423 14725 
8142 2843 16865 18791 20670 5108 11335 19455 16939 
2608 4674 4731 3800 4679 3195 6161 13888 15996 
8633 19724 15124 14751 1606 10908 8417 19902 20769 
5636 9097 4608 20382 3325 15787 12957 16663 1363 
20498 19082 12855 1755 7516 19766 18883 18581 1876 
6053 4670 7270 15519 11270 13757 16994 1494 9017 
4763 1297 10893 12413 16362 1039 1961 6357 3075 
7763 1657 16993 11798 17945 15844 10634 21213 8765 
6165 4284 1382 7373 7413 11038 15396 17373 11220 
9964 2410 15998 21569 13378 8867 17229 412 4842 
694 19971 21778 20907 20518 10576 3777 13468 17971 
1899 20053 19340 19007 20450 13915 19815 18955 12475 
21621 11118 4778 5135 5574 20040 6085 6452 14068 
7985 6181 10923 14715 822 9286 17319 19233 7078 
21599 9142 1268 913 11824 17537 9005 10460 9260 
7306 19261 1672 14455 15564 1011 13890 16842 5278 
4754 3505 5843 372 6002 12414 16160 16092 8787 
15128 1472 18138 14079 6545 18291 6479 17929 8499 
21118 5038 2818 19731 5707 5459 918 10090 5528 
3687 9373 9868 19120 16904 1769 19391 17693 4465 
3920 5742 16245 4439 4560 8881 11632 4210 3310 
5686 3647 1842 4479 3735 579 16536 17159 9725 
6997 12126 16076 10005 363 570 5655 4962 4540 
4707 497 5414 512 6437 14247 3717 6253 979 
7469 5736 13476 7430 19342 5577 4745 5417 3142 
2723 361 6179 3359 2401 4264 4027 7384 2580 
333 5167 2625 16958 4421 4725 3796 843 2021 
713 5505 6356 1869 606 7051 877 6934 6550 
3536 4714 20537 5309 6035 3344 6498 4396 2240 
6552 484 14555 3417 2898 2805 6275 2997 12188 
6316 4290 5805 4121 1865 3085 5198 19580 3122 
11481 7672 9506 4603 14336 894 5824 3139 786 
9052 18508 3025 3516 2881 5137 3823 14370 5398 
5008 7028 4559 2379 12697 14837 13414 4364 10416 
8937 5437 8635 13525 11202 788 5980 4012 7641 
8698 17528 13364 17021 9705 8235 17752 19760 8344 
15683 20627 16257 16191 13257 20286 2480 6187 7507 
4847 11725 14547 4990 4006 13373 21215 13439 5019 
18473 6918 17016 16741 9265 21654 527 8882 17964 
6711 5864 1246 6561 19103 12614 20403 2303 18717 
8935 11254 3066 10851 10666 19794 16876 21030 9171 
555 16709 12699 13688 18157 19558 18816 20939 11304 
16239 8145 18591 1058 5649 7433 16862 847 2758 
12433 14472 14710 7082 18534 9428 10840 16327 19387 
3071 19243 21539 17272 18184 10073 8328 18739 12389 
12350 3614 17814 2788 4550 7592 4019 9996 10766 
4181 16721 17669 19903 10994 19009 18058 17685 19600 
10515 20142 20088 12479 19559 21945 7715 8137 17360 
3950 5801 2607 15146 617 5705 7862 16776 16984 
17350 14348 12019 8713 17195 4304 19686 4095 21535 
8396 2356 3382 2779 7383 12747 5729 5327 16490 
14274 4323 9703 6779 8888 19212 21861 9247 21481 
8469 9867 10809 2887 13139 20059 3330 5370 16204 
20319 7432 11833 853 17393 17214 12229 17136 19874 
3700 18273 19211 15888 6122 8368 6106 7753 5318 
2362 2273 5813 2293 19192 20748 20615 20429 8236 
9207 2296 13118 8268 9446 16186 19842 16425 17034 
18391 13780 10901 16171 7456 11087 17204 12091 3007 
20458 20891 6171 1791 3550 19645 4568 18490 1561 
2479 20966 11929 13648 15585 12459 16805 21348 2172 
19657 7234 311 4287 16210 6457 10843 12517 20609 
15862 12507 8591 13513 8225 13334 12886 15470 10134 
10010 21961 138 7211 14334 7190 10823 3059 4612 
6335 756 4241 439 15095 17521 14504 13312 8792 
12505 11902 14731 14766 7920 179 11752 8597 7518 
14971 5254 183 2166 17742 9645 13851 4925 14059 
9332 9155 12745 10672 21012 12442 16680 14606 12129 
15567 20106 12953 18587 17951 12457 13342 18008 17367 
15059 1329 16259 3552 6901 6857 1955 1788 20902 
9310 13857 8859 17507 14015 16460 21431 18452 8769 
14445 12501 17919 18647 12236 1231 20260 14006 3520 
9502 10855 4288 9830 17954 13158 12446 278 7457 
6370 2755 17461 16890 14482 11344 5007 8056 15205 
11686 15273 9200 20568 9675 12495 18116 20704 14044 
18495 16568 16616 10540 18704 19449 15780 15309 19262 
9457 14659 21360 2633 1302 4659 1391 21754 7725 
9040 16135 6411 20763 9542 13497 11647 14156 9012 
11636 17650 8914 15065 16293 10088 9757 12617 11247 
15191 16241 2507 16334 1188 9295 9139 5669 321 
1292 2928 11758 11099 9719 991 9045 17042 15246 
13683 1944 18622 11811 16496 21115 20449 12952 10223 
13389 20775 18613 21183 1279 7860 15964 10430 16112 
2239 608 20843 4724 12284 14727 17447 4236 4926 
20439 12695 10920 8106 18018 12193 11858 8516 15700 
10292 11495 1017 7529 18939 1637 657 746 6069 
19092 5127 21671 9110 17595 16662 12778 14214 13325 
20083 17257 20324 6049 540 13299 15198 18295 13908 
10171 10103 14495 12707 4211 7494 3019 21010 15322 