# vtk DataFile Version 4.2
Generated by LIGGGHTS
ASCII
DATASET POLYDATA
POINTS 10000 float
-0.0189134 0.000925278 -0.0364935 -0.0186137 0.00378546 -0.0366467 -0.0191478 0.00551686 -0.0363667 
-0.0188592 0.00728851 -0.0365242 -0.0179858 0.00879422 -0.0369637 -0.0188611 0.0104307 -0.036523 
-0.0179936 0.0134762 -0.036956 -0.018402 0.0152164 -0.03675 -0.0190474 0.0174991 -0.0364231 
-0.0182818 0.0191973 -0.036819 -0.0209025 0.000899797 -0.0353832 -0.0199298 0.00230366 -0.0359515 
-0.0181893 0.00224191 -0.0354965 -0.0201722 0.00408488 -0.0358123 -0.020778 0.00574312 -0.0354673 
-0.0202637 0.00809897 -0.0357588 -0.0205754 0.00986174 -0.035582 -0.0187057 0.009081 -0.0353455 
-0.0210853 0.0115622 -0.0352868 -0.0191517 0.0122484 -0.0363462 -0.0195821 0.0139799 -0.0361385 
-0.0198825 0.0159037 -0.0359754 -0.0212928 0.0167566 -0.0351661 -0.0198552 0.019126 -0.0359606 
-0.0232034 0.00139227 -0.0339304 -0.0192284 0.000932752 -0.0347205 -0.0208288 0.0024274 -0.0344089 
-0.0190927 0.00258259 -0.033985 -0.0225342 0.00299814 -0.0343792 -0.0230519 0.00468089 -0.0340286 
-0.0213519 0.00434557 -0.0344921 -0.0186377 0.0040768 -0.0348784 -0.0222557 0.00620182 -0.0345551 
-0.0193852 0.0067237 -0.0349057 -0.021802 0.00796329 -0.0348429 -0.0197145 0.00832727 -0.0340666 
-0.0220857 0.0101987 -0.0346618 -0.0193168 0.0111422 -0.0349434 -0.0177064 0.0105101 -0.0344649 
-0.0234133 0.0127608 -0.0337811 -0.0215951 0.0135127 -0.034974 -0.0199132 0.0128342 -0.034792 
-0.0180061 0.012599 -0.0350039 -0.0203009 0.0147251 -0.0346724 -0.0181915 0.0143999 -0.0350826 
-0.0221683 0.0153018 -0.0346001 -0.0228871 0.0168865 -0.034147 -0.0186291 0.0161031 -0.0347087 
-0.0197418 0.0175679 -0.0347681 -0.0180807 0.0176974 -0.0341002 -0.0231192 0.0191537 -0.0339854 
-0.0217194 0.0184806 -0.0348913 -0.0202239 0.019204 -0.0342063 -0.0183127 0.0192072 -0.0350317 
-0.0246071 0.000925543 -0.032917 -0.0214983 0.000896688 -0.0336854 -0.0198632 0.00125536 -0.033045 
-0.0180805 0.00145457 -0.0330224 -0.0212101 0.00243655 -0.0326601 -0.022822 0.00322084 -0.032624 
-0.0200598 0.0037638 -0.0330451 -0.0244254 0.0040454 -0.0330545 -0.018328 0.0048234 -0.0332795 
-0.0216839 0.00537848 -0.0330641 -0.0199374 0.00533321 -0.0339095 -0.0243804 0.00716589 -0.0330945 
-0.0225891 0.00704441 -0.033002 -0.0207894 0.00691243 -0.033793 -0.0188134 0.00655186 -0.0332164 
-0.0221153 0.00876131 -0.033265 -0.0238904 0.00898315 -0.033449 -0.0188444 0.0098146 -0.0332639 
-0.0250102 0.0105227 -0.0326203 -0.0234993 0.0108903 -0.0337193 -0.0219602 0.0105068 -0.0328685 
-0.0204693 0.010316 -0.0338493 -0.0248165 0.0123029 -0.0327627 -0.0217499 0.0120802 -0.0337082 
-0.0201812 0.0118812 -0.0328681 -0.018498 0.0117813 -0.0334817 -0.0204459 0.0136196 -0.0332615 
-0.0239059 0.0145633 -0.0334416 -0.0221988 0.0140113 -0.03336 -0.0189391 0.014813 -0.0335017 
-0.0226908 0.0156621 -0.0327 -0.0209907 0.0156289 -0.0332833 -0.024307 0.0164264 -0.033145 
-0.0194482 0.0165523 -0.0331686 -0.0175916 0.0162372 -0.0331876 -0.0244892 0.0182084 -0.0330054 
-0.0227338 0.0179476 -0.0327142 -0.0212205 0.0173925 -0.0334956 -0.0198601 0.0182522 -0.0327238 
-0.0214624 0.0192012 -0.032908 -0.0184413 0.0192118 -0.0332143 -0.0260243 0.000896825 -0.0318177 
-0.0229375 0.00130893 -0.0321554 -0.0212385 0.000894961 -0.0317434 -0.0267289 0.00246279 -0.0312291 
-0.0252261 0.00255034 -0.0324531 -0.0197624 0.0025566 -0.0315979 -0.0179647 0.00258918 -0.0316358 
-0.0210367 0.00391727 -0.0315481 -0.0259737 0.00419843 -0.0318509 -0.0188894 0.00412537 -0.0317315 
-0.0266302 0.00591478 -0.0313072 -0.025243 0.00573384 -0.0324402 -0.023365 0.00541687 -0.0324281 
-0.0201781 0.00588312 -0.032212 -0.025826 0.00738016 -0.0319713 -0.0241135 0.00667317 -0.0313918 
-0.0210826 0.00743936 -0.0320994 -0.0243711 0.0084256 -0.0318134 -0.0225929 0.00828075 -0.0316019 
-0.01885 0.00819249 -0.0324961 -0.0259917 0.00923791 -0.03184 -0.0234256 0.0099414 -0.0319965 
-0.0204288 0.00904293 -0.032588 -0.0174962 0.00907468 -0.0317133 -0.0207321 0.0107562 -0.0315763 
-0.0261366 0.0116618 -0.0317326 -0.0230885 0.0117151 -0.032171 -0.0233771 0.0134865 -0.032109 
-0.0217012 0.0128519 -0.0320915 -0.018707 0.0133022 -0.0325629 -0.0255556 0.0138699 -0.0321923 
-0.0212088 0.0145587 -0.0318631 -0.0177002 0.0147446 -0.0321994 -0.026032 0.0155603 -0.0318072 
-0.0242048 0.0152382 -0.031805 -0.0195381 0.0152507 -0.0318643 -0.0235825 0.0168991 -0.031534 
-0.0215946 0.0167994 -0.031839 -0.0260063 0.017355 -0.0318294 -0.018208 0.0176777 -0.0323073 
-0.025678 0.0192004 -0.0320905 -0.0236169 0.0192034 -0.0317878 -0.0273837 0.000896319 -0.0306493 
-0.0257486 0.0014406 -0.0301279 -0.0243602 0.000903853 -0.0311357 -0.0226647 0.000904355 -0.0304249 
-0.0189319 0.000900693 -0.0315466 -0.0238968 0.00275959 -0.0312681 -0.0221166 0.00254124 -0.0311154 
-0.0275112 0.0039181 -0.0305389 -0.0253458 0.00334356 -0.0303874 -0.0244247 0.00493523 -0.031061 
-0.0227537 0.00428304 -0.0311777 -0.0281453 0.00549047 -0.0299634 -0.0219742 0.00589075 -0.0313712 
-0.0192037 0.0053823 -0.0304981 -0.0276089 0.00726341 -0.0304455 -0.0205699 0.00682911 -0.0304862 
-0.0185163 0.00673064 -0.0314578 -0.025845 0.00827219 -0.0303365 -0.0193858 0.00816203 -0.030782 
-0.0275011 0.00905723 -0.0305499 -0.0246968 0.00964338 -0.0305342 -0.0210114 0.00893675 -0.0309005 
-0.0192049 0.00980678 -0.0314998 -0.0263192 0.0104049 -0.0304742 -0.0229991 0.010454 -0.0303258 
-0.0274916 0.0117605 -0.0305545 -0.0244808 0.0113307 -0.0311106 -0.0231235 0.0122479 -0.0303709 
-0.0213308 0.0120861 -0.0305205 -0.0190011 0.0116702 -0.0315358 -0.0270159 0.0135317 -0.0309721 
-0.0253546 0.0128967 -0.030696 -0.0198916 0.0135183 -0.0312329 -0.0178453 0.0134213 -0.0309958 
-0.0256551 0.0146286 -0.0303207 -0.0239729 0.0140254 -0.0305063 -0.0221309 0.0137345 -0.0305595 
-0.0274666 0.0152283 -0.0305786 -0.0226439 0.0154231 -0.0309171 -0.0207122 0.0157088 -0.0305799 
-0.0184162 0.0155631 -0.0304955 -0.0276758 0.0170037 -0.0303909 -0.0251095 0.0163991 -0.0305102 
-0.0197826 0.0169901 -0.0314503 -0.0247069 0.0181221 -0.0308558 -0.0224123 0.0181502 -0.0309619 
-0.0183124 0.01749 -0.0305249 -0.0269846 0.0186146 -0.031 -0.0207711 0.0188247 -0.0312954 
-0.0189546 0.0191957 -0.0314877 -0.0289266 0.000895983 -0.0291956 -0.0271755 0.00114996 -0.0288889 
-0.0205149 0.000959818 -0.0301006 -0.0174797 0.000911593 -0.0302205 -0.0281725 0.00234595 -0.0299342 
-0.024171 0.00212967 -0.0296128 -0.0218804 0.00188147 -0.0291157 -0.0189786 0.00188771 -0.0300517 
-0.0288223 0.00389815 -0.0292988 -0.0266028 0.00283421 -0.0292145 -0.0211207 0.00333321 -0.0298504 
-0.0193669 0.00363986 -0.0300746 -0.0177949 0.00297749 -0.0292425 -0.0261386 0.00488803 -0.0299176 
-0.0244872 0.00450742 -0.0293227 -0.02264 0.00445767 -0.0293979 -0.0209433 0.0051013 -0.0301301 
-0.0177179 0.00436604 -0.0303903 -0.0235428 0.00593925 -0.0298578 -0.0291178 0.00665936 -0.0290072 
-0.0261278 0.00665791 -0.0296065 -0.0223068 0.00720093 -0.0301943 -0.0288054 0.00840155 -0.02932 
-0.0270424 0.00827294 -0.0290011 -0.0240992 0.00792511 -0.0301132 -0.0175643 0.00783738 -0.0304123 
-0.0256758 0.0095727 -0.0290264 -0.0239082 0.00928385 -0.0289661 -0.0222975 0.0089112 -0.0296559 
-0.0204441 0.00895588 -0.0292003 -0.017995 0.0098234 -0.030165 -0.0275115 0.0101804 -0.0291446 
-0.0251085 0.0112263 -0.0294346 -0.0212225 0.0104206 -0.0298773 -0.0194819 0.0105344 -0.0294529 
-0.0287784 0.0114413 -0.0293444 -0.0196338 0.0122715 -0.0299691 -0.0178951 0.0118552 -0.0301151 
-0.0283179 0.0131562 -0.0297879 -0.0262861 0.0125583 -0.0292027 -0.0243566 0.0128459 -0.0292075 
-0.0208328 0.0134563 -0.029347 -0.0288919 0.0147657 -0.0292408 -0.0269784 0.0142182 -0.0291764 
-0.0235879 0.0148324 -0.0289506 -0.0190026 0.0139621 -0.0297394 -0.0264556 0.0159372 -0.0292744 
-0.0218441 0.0150369 -0.0293512 -0.0293671 0.0164255 -0.0287476 -0.0233681 0.0166122 -0.0297751 
-0.0195367 0.0165662 -0.0295079 -0.0293245 0.0182185 -0.0288022 -0.0261711 0.0176681 -0.0296651 
-0.0209626 0.0174376 -0.0301743 -0.0282467 0.0191994 -0.0298561 -0.0252536 0.0192059 -0.0295377 
-0.0235168 0.0191874 -0.0299948 -0.0216009 0.0192047 -0.029756 -0.0197546 0.0191723 -0.0298547 
-0.0175827 0.0192002 -0.0302991 -0.0295545 0.00100804 -0.0275175 -0.025453 0.000896478 -0.0284439 
-0.0234059 0.000892362 -0.0285662 -0.0202396 0.0008952 -0.0283263 -0.0183992 0.000893605 -0.0286761 
-0.0300817 0.00269816 -0.0280153 -0.0283344 0.00230722 -0.0281503 -0.019861 0.00261749 -0.0286733 
-0.0253774 0.00352617 -0.0280924 -0.0235604 0.0032921 -0.0283887 -0.0217811 0.00345007 -0.0281883 
-0.0300227 0.00449567 -0.0280688 -0.0272483 0.0043851 -0.0285714 -0.02029 0.00436019 -0.0286303 
-0.018514 0.00457441 -0.0287921 -0.0303259 0.00623842 -0.0277403 -0.0274332 0.00617143 -0.0284748 
-0.0257319 0.005427 -0.0282575 -0.0225813 0.00588769 -0.0283079 -0.0198901 0.0060762 -0.0290017 
-0.0181111 0.00627505 -0.0291837 -0.0244449 0.00665827 -0.0284799 -0.0229364 0.00763021 -0.0285682 
-0.021147 0.00734565 -0.0288278 -0.0300603 0.00830709 -0.0280266 -0.025024 0.00827966 -0.0279715 
-0.0217213 0.00880192 -0.0279481 -0.0191605 0.00771848 -0.0290558 -0.0294739 0.00992796 -0.0286435 
-0.0282251 0.00888729 -0.0276913 -0.018904 0.00931306 -0.0282657 -0.0246881 0.0105353 -0.0278313 
-0.0224827 0.0103525 -0.028606 -0.0206984 0.0103323 -0.0280746 -0.01765 0.0107804 -0.0286888 
-0.0292249 0.0113767 -0.0276076 -0.0274837 0.0118047 -0.0280945 -0.0234303 0.0117876 -0.0280949 
-0.0214531 0.011816 -0.0287489 -0.0197185 0.0118339 -0.0282356 -0.029633 0.0128942 -0.0284838 
-0.0264482 0.0134335 -0.0276487 -0.0226107 0.0131841 -0.0289128 -0.0184457 0.013537 -0.0280906 
-0.03049 0.0141745 -0.0275612 -0.0281844 0.0137926 -0.027915 -0.0253062 0.014475 -0.0285651 
-0.0199517 0.0145444 -0.0282177 -0.0277382 0.0155297 -0.0280831 -0.0184039 0.0153117 -0.0287189 
-0.0247645 0.0161931 -0.0287233 -0.0226688 0.0161696 -0.0281821 -0.020872 0.0160903 -0.0282661 
-0.0276175 0.017327 -0.0286284 -0.0260076 0.0175481 -0.0278702 -0.0243758 0.0179427 -0.0286071 
[...]
POINT_DATA 10000
FIELD FieldData 7
id 1 10000 int
8000 5134 9960 6559 9789 5850 528 5760 1799 
2122 6279 3808 3329 9012 8713 1148 7573 6024 
1657 8083 3583 3231 5427 5408 888 946 917 
9065 4592 8535 1839 5147 5475 9398 3966 8637 
5854 6899 2652 5964 7933 7371 5774 453 7084 
9628 6877 8075 7119 5310 7379 2701 5099 2622 
2706 8866 1840 2869 9567 3997 4026 8189 2994 
5060 1341 410 1757 7206 3190 9976 543 9229 
9207 1128 9857 8867 9922 9121 1665 3467 3188 
1606 1792 5889 9255 289 9107 6273 9376 8320 
8592 8877 1734 3091 8074 9593 5814 2186 6062 
7505 7958 7736 9170 9606 9705 1132 3901 4054 
3262 7266 8032 3968 9914 2363 5474 4109 415 
6683 3912 9934 170 5420 9848 4336 9673 8484 
9716 8219 2989 9100 9316 7885 398 2859 3274 
9405 5417 480 4283 6051 8804 8297 7386 9915 
9249 6616 9907 7278 6610 1844 3395 2584 260 
8598 2879 9910 8711 2640 1195 8773 7703 2370 
7578 6346 7593 4143 8947 5590 7910 9520 2075 
8615 1040 5327 9523 320 8026 2556 9527 303 
7579 9837 1714 9984 3160 8828 8852 471 5654 
4232 8095 3021 4023 6023 9903 7865 7282 5730 
7483 6203 541 4602 5965 8158 6460 1595 578 
9082 8211 65 9253 6794 3376 6802 5429 9703 
2798 437 7291 9842 7202 7082 9027 4720 3439 
6739 1783 7449 9085 1631 3917 4064 5943 6390 
2998 8072 8286 1569 9802 7498 2892 2482 828 
3098 5560 7832 8310 7569 9371 9692 6145 4615 
5383 8762 189 3100 7063 9898 2718 9064 6240 
8821 3162 6626 7444 2023 889 1179 9757 6096 
8034 8564 8421 8845 2170 2855 1448 9400 7894 
758 1306 1485 9724 8445 7360 344 2136 5379 
4783 2721 1678 5364 7302 5136 9455 4209 9671 
4387 598 1369 2449 4628 2433 6866 4231 3914 
4542 4196 438 1729 9034 4347 4467 8352 2213 
5673 7704 609 8498 1555 1035 5352 9332 7521 
3081 2878 2241 2141 9557 4764 3693 6493 9951 
9282 5795 1857 5335 9927 4043 3447 9485 321 
778 9696 8442 7930 5010 9515 9863 6505 2698 
3712 6829 1954 6762 8093 1820 2762 4807 6517 
6668 3963 3864 8518 387 1266 8056 5623 529 
1506 4455 1370 2927 6756 6088 5791 9225 7309 
7830 6630 473 1978 4015 4051 5981 9534 7891 
8347 8590 1532 9242 4459 6403 199 3462 7326 
2938 8207 4943 6038 2193 714 9677 7529 9261 
6999 9639 7632 356 3904 3704 8808 8141 6719 
8167 6823 6317 1181 3452 6872 7760 7029 3292 
1593 8720 9958 9894 6097 7512 7997 9786 7086 
3613 1019 1483 9329 6402 4714 4740 6366 8147 
4206 6256 7439 4754 4945 2959 9782 3694 846 
8134 8389 721 8873 6916 2220 7576 4141 9378 
4272 8621 7669 691 6161 1764 9488 6035 6540 
9086 1049 7587 6098 4524 1252 3915 9647 6490 
9583 184 2624 655 3238 4582 8881 8351 3766 
3016 4276 1199 3519 4450 2699 3944 6985 4249 
5236 4748 2158 1367 1240 9383 7637 2889 7219 
9508 1387 1102 3393 9795 5418 9559 1611 1012 
9504 6644 6593 1994 4029 3787 8 5034 9142 
4503 9701 5166 9796 4536 2733 3039 3817 677 
309 3171 3437 139 5874 3625 9135 1087 5759 
5407 1933 3838 3702 2463 4709 6463 1710 4228 
3503 5470 8835 5968 5819 635 6046 5695 5707 
2489 9434 1791 1468 1457 7973 9171 661 830 
7164 5608 3633 1944 4775 1430 9871 3492 1537 
9162 2575 8612 341 700 3554 5769 8964 1279 
9088 108 1531 4190 2832 7385 2192 3978 1700 
9913 7676 2441 5274 200 2039 79 9055 8431 
9578 158 8919 6869 9550 9776 2323 4595 8997 
4625 1752 4546 1322 6837 2380 3239 4365 9248 
4964 7678 4643 123 8039 602 210 5963 1578 
7237 5767 8381 5848 9748 2642 5174 9981 6497 
8756 17 1091 1544 5539 1466 9129 8636 5434 
6522 9856 771 2003 9566 9633 7305 3686 991 
5706 4869 1754 5069 1497 2322 1276 6093 8311 
4739 3530 9450 5287 6104 8324 377 3580 7274 
2435 8227 9751 8824 5423 3600 2763 4814 4622 
3767 7634 1899 8701 9176 7094 5397 3011 5650 
9667 403 4645 4892 3133 7596 650 759 6438 
2460 6642 2638 9345 1709 2110 7052 2257 1373 
7828 9323 2588 8810 8897 6889 3802 7705 3549 
1479 9835 3741 4576 5816 6210 3441 1116 6527 
78 5139 4014 2604 7552 5033 613 442 4068 
1698 6110 9410 4826 6323 6178 9588 5458 2096 
5677 931 9288 9532 4242 5181 7226 3732 3235 
8619 2123 2009 2124 263 3278 6893 9023 106 
1134 8050 6446 9133 7770 784 5348 594 2450 
1707 9681 1897 1853 3074 8981 2272 1138 6738 
5036 6650 1162 2641 6726 9966 7731 862 2538 
5158 2157 6888 1069 4079 9722 155 5283 6748 
3508 9042 3478 327 9706 7860 654 1567 2215 
6124 8733 5321 4423 3312 9189 5520 6430 6819 
9208 3304 4171 8377 7937 8128 5744 7827 2367 
9851 3132 798 144 6091 2724 8340 1806 8996 
6793 6674 2310 3573 9788 8350 6753 7417 9961 
7381 2383 7500 7475 7171 3225 6906 2680 8382 
2958 5672 2081 7130 5659 1257 5739 3609 6262 
6539 3379 5336 9965 493 1949 3152 8696 3989 
9568 8444 9731 3149 5840 7157 720 8187 5209 
5464 3180 7158 2596 5879 7698 7510 6073 4469 
8009 6146 7005 9444 8978 5001 5982 1253 4340 
1167 4591 1850 9818 9995 7796 6012 6773 9029 
8958 9747 68 3420 6041 593 2269 9683 1076 
9873 9217 4785 7541 5275 6296 7855 9816 9862 
9590 634 7217 9243 1875 2127 5676 1314 6534 
8493 7575 8632 7445 4087 5057 3592 7666 575 
7924 3463 9733 6873 8388 5389 1394 5188 2700 
4433 5949 397 8671 8989 3365 8838 6536 1836 
3421 7507 6812 4817 5192 464 5883 7133 8812 
4167 1323 228 8602 744 7712 1512 9203 3868 
5919 4703 4951 9006 8512 9031 4442 8972 6732 
9209 5727 1372 6287 7717 238 87 5910 3721 
6121 9272 7737 9579 5264 5514 9992 1084 7259 
4691 237 8721 3558 9004 4797 7391 7508 77 
4471 7472 9205 2108 604 8293 7170 5779 4072 
1793 8604 1960 8737 5626 6637 3348 9346 7248 
9546 7671 2120 6828 8792 9853 3536 2203 959 
6407 2868 7078 7318 1716 3526 1447 7022 1454 
6551 6592 7987 5340 1919 6970 886 4653 8896 
3434 9573 1263 4356 282 950 9144 5334 4343 
8438 1275 7699 7293 5681 6953 750 9832 8397 
3755 7716 3170 7931 5353 3247 296 9147 5822 
4972 4074 5101 7866 824 6768 6728 4954 28 
3224 3151 9535 4960 9890 9479 7431 1164 3070 
8487 3792 2095 8933 9537 6395 5299 7135 164 
3080 8004 3347 351 7192 1680 389 367 9600 
2478 6268 1924 8088 4295 1636 858 6553 2993 
5666 2981 9653 2603 6197 8151 1632 6285 1721 
7149 9844 2452 1249 7244 7545 9454 9522 8783 
9975 7361 9056 6957 3022 4094 857 6541 2510 
105 5130 1184 4538 9791 3015 9507 1643 5932 
8003 2328 2365 2444 7434 6120 342 2159 9150 
8779 3077 3666 5424 6980 2378 6530 725 5137 
8857 8412 1732 7660 5607 1936 8416 8931 726 
7324 3290 427 3448 6655 333 7980 8109 3881 
8359 1870 6239 5845 7011 8524 30 8486 987 
2099 8719 970 6405 7726 2368 6162 9827 6759 
8765 5658 9214 3314 3684 85 6260 230 1604 
2679 1424 9659 1333 1519 386 3898 8727 9220 
5591 9943 1986 35 5855 4066 9880 9148 2790 
5661 8971 6040 8192 767 3219 4 3603 8240 
9725 1866 2209 423 1689 8159 1280 6398 4397 
9911 3486 4111 944 8952 6602 1014 6963 3823 
2288 2813 4990 4326 3754 2521 1968 9032 1250 
8305 4329 4145 8433 7072 685 4273 1426 6486 
8276 2775 7974 6362 2008 7640 7812 6598 6935 
8031 8545 5920 1509 2837 1361 5984 3913 866 
737 9035 2520 180 7359 4735 6332 3977 5105 
7117 961 291 5671 7408 9136 7116 9741 9524 
2735 21 6471 6378 9098 9415 9469 1230 5674 
7106 3776 5815 9022 7447 9465 5193 732 4127 
1630 5186 8532 11 5453 1175 5692 9972 1585 
4534 3761 7709 4685 2022 9983 3658 7056 5594 
764 8144 8744 6868 4516 2630 9799 8372 4935 
301 360 382 4656 7557 7730 9233 3544 7456 
3514 59 2682 4813 6010 3469 9320 8131 6833 
2212 760 1004 6011 5618 3765 942 6338 304 
6746 927 5557 9423 5113 8991 1057 9607 9762 
9239 2960 5958 61 107 9814 7661 4847 9240 
7286 3637 4846 7239 3918 1869 4956 646 3349 
3943 31 8395 7298 1517 4241 4668 7693 3179 
5466 5406 4613 1777 5246 478 1741 3998 9234 
9440 7159 6785 5830 39 7009 1159 6744 8579 
7927 2821 6039 2705 7711 8508 611 4742 290 
4819 2902 5216 1522 8855 9093 9571 9048 4913 
8714 2392 2035 6775 5979 2046 5449 3440 9831 
1974 4934 747 4184 8797 5573 630 5794 3043 
7181 7246 7213 4811 1165 1946 4011 1559 5157 
1144 5396 2455 6026 5785 4854 3176 1417 666 
4771 2590 6052 6639 9582 7626 7236 4034 7831 
7049 5102 5566 4431 7599 4009 6243 3029 7240 
5409 7028 920 7907 4364 5561 6737 5428 8228 
3366 9974 2229 4386 5021 6757 3894 9359 6384 
9452 8561 5777 4894 2818 4461 4449 5480 8097 
6782 2997 110 5140 1681 6907 5927 3060 5223 
2160 5119 6129 3460 380 2109 1822 9672 4674 
6649 2826 4816 6860 3886 6736 9179 8464 6567 
4005 3872 3949 9917 3511 1432 963 2464 4261 
5196 5750 2691 7191 1782 9115 9759 5142 7253 
2357 5494 399 3064 7231 1464 1558 8257 3574 
5575 6984 2900 3707 3676 9718 7055 9804 9114 
6107 2485 3217 4708 2539 6667 788 6578 9638 
9007 6791 8606 7462 9321 3710 579 5649 4841 
9539 2164 1205 3777 20 2577 513 8163 4060 
8944 2005 8292 1550 2800 3031 4342 809 3237 
6577 3005 7623 8047 8856 2828 6871 4590 2941 
3953 8758 7189 2951 6514 2572 5293 9780 9528 
8485 973 6531 4515 540 4301 9897 7132 7892 
5800 7073 5928 9565 5416 6379 5307 486 3858 
3836 9998 1112 8152 3061 4088 7450 4076 445 
117 6914 2404 6048 3731 3908 2799 2537 6778 
8057 8463 3085 5728 250 5631 8253 9014 96 
5729 6034 8570 1988 4650 6238 1843 4975 8287 
9473 1525 4713 5279 2673 225 3713 6749 5482 
8537 6943 4984 8576 4912 8181 4269 2749 7745 
4316 9957 1536 3735 6441 3131 3341 8291 8541 
9595 7477 1365 4815 8406 2262 8543 5726 121 
1939 3415 8567 7568 6068 4567 3320 815 137 
8414 2302 2027 5805 4067 4371 9967 3529 8471 
5400 6811 2980 4617 475 4671 2305 4887 9711 
6533 1999 1455 3183 6381 7495 9866 1570 8587 
1728 933 7969 1379 7994 8725 9561 3919 2446 
1188 4384 2767 8202 186 6144 6590 1910 8690 
2820 2875 1959 2940 2371 2661 1838 1282 2858 
4914 6141 6654 6138 1251 2498 7222 7719 203 
4940 1073 7638 855 5203 4789 9000 9315 2838 
52 1493 3165 1769 3263 4372 7715 3291 5955 
9767 7835 7337 4077 9265 8234 6399 9289 338 
4566 9156 1660 801 8529 7062 5516 2992 7538 
3483 2137 1713 1796 4732 1423 9060 9732 8617 
7285 7068 2741 3450 3048 9729 6975 9825 2827 
4136 3642 3412 7651 8624 2555 6116 1702 2740 
3844 9043 7437 9521 574 1787 2658 7544 8572 
4463 444 6101 7675 5913 2169 3458 7535 860 
3146 2273 8016 3930 3281 1725 4135 7842 4539 
1527 2055 4436 2453 8233 5906 6595 639 8224 
5156 9387 6628 3375 1650 8140 8428 7334 5359 
8869 5178 5296 9017 1327 113 9481 7215 425 
1758 2517 9403 647 3211 8504 6721 6618 8566 
236 7105 7325 7207 7991 5907 3744 6554 5162 
192 2553 3236 8517 6283 595 8520 5243 8139 
6930 3136 1037 4302 835 8323 2327 5640 9511 
4824 5821 7833 8116 2495 6552 6318 8685 3971 
6242 2872 7050 90 8277 2423 8349 856 6956 
2153 7331 5300 1615 7960 27 2118 3210 481 
4778 631 1051 9385 9134 1450 8771 4851 3502 
632 4404 4357 1616 7020 5683 1344 5378 4115 
1092 9377 5217 4472 2886 7584 7057 7784 5297 
1242 9478 1137 3619 3717 3743 1226 7210 9131 
592 8171 2010 9707 644 6686 4736 5129 6702 
3667 4288 3680 2843 2822 4715 2797 3602 6142 
7970 7528 5912 6303 6095 9610 4988 3232 2961 
4227 4285 8329 9404 1759 2795 7267 3781 584 
3709 477 8183 2178 8209 6617 8215 6928 2348 
6319 4953 2377 390 8530 2549 1191 4730 9326 
3655 8492 3227 6725 8697 7388 2347 8932 454 
8332 6401 9591 7058 6424 3727 742 1542 678 
6077 272 1543 9881 9083 1364 1886 960 2386 
7691 9480 5503 3929 555 2611 185 9955 3692 
8364 3510 4296 556 7647 1094 2912 3922 2529 
8521 896 3297 181 9483 6013 7096 4348 4010 
7950 2877 4573 1456 388 6951 1953 5374 8092 
7776 3370 6419 7526 134 9251 9138 8437 6465 
4107 5309 5602 6370 2048 8726 2911 5871 2576 
8138 6106 6955 2429 6886 6166 1196 7230 5548 
8506 2256 3134 7941 2152 8238 1538 3528 716 
3728 6627 5665 2113 643 1378 8289 1816 116 
7254 5678 5662 5072 722 8290 1975 5933 1332 
7283 6680 7571 9875 6576 9124 6901 7420 5519 
823 701 4140 6807 9641 6694 5096 4505 4224 
3479 2542 925 5393 7707 7440 8250 8449 4445 
8098 2782 2916 6589 2264 6253 8216 365 8689 
133 3108 369 848 7438 2536 7175 5065 5784 
5693 9105 8069 2151 4717 8950 494 7940 6187 
4297 738 8673 2756 765 8552 8229 1353 6573 
5917 2173 5783 4521 5579 2942 9466 8899 6701 
7879 4702 9435 9812 1612 4298 7649 2656 8663 
559 6172 7979 3 4213 3442 3720 6572 5559 
7654 5757 229 2856 9691 999 6836 4664 7806 
3135 2712 5440 898 2812 2077 3660 1009 880 
9850 9800 5115 4600 1695 330 8080 7214 3432 
2202 829 1396 4398 1117 2473 7441 4312 3397 
8764 2201 1410 1384 9113 626 3843 1998 5524 
2870 6549 4780 992 3354 4113 4729 9945 9805 
4838 7252 7861 4013 9165 1594 3564 4744 669 
168 827 7799 8625 5931 3017 3679 7152 2417 
6020 5908 7406 3749 1914 9475 2311 3610 1861 
9071 7609 8230 2778 3127 9506 875 1943 4517 
7375 5633 892 2032 3846 4518 5255 9397 1697 
9270 284 7513 4587 198 7104 8662 1589 7292 
7211 8342 7556 2285 534 7886 6439 4162 8848 
9649 2527 2195 7845 1808 7546 2442 623 4091 
7332 4513 3878 3012 1756 6508 3260 6827 9259 
6936 9364 9005 9467 7856 5543 2317 9764 7051 
1161 6276 683 6903 9562 6003 7967 4594 5402 
5367 704 800 4561 2696 9498 165 269 5443 
5546 1715 5268 8960 1200 2270 2088 1180 6391 
6173 4203 9932 5046 3887 511 9218 3082 2266 
842 1351 8830 921 5725 9829 5999 7795 9645 
2 5849 3885 8343 5891 8360 3716 4888 3139 
6207 426 873 4995 748 2398 5688 2287 5011 
385 6634 1930 8104 6368 6078 9439 6473 4770 
8987 1147 8684 6190 9556 5091 9888 1458 2928 
6356 2390 7515 6727 5004 9370 1818 2156 6992 
4148 6151 899 868 6449 7479 3750 2002 2477 
2267 5183 4527 5485 641 1029 3309 7336 6729 
2977 4176 8936 4891 9325 2751 157 5439 3827 
8531 1825 1915 2523 2678 3001 2253 8400 8605 
5411 8185 776 707 288 136 2188 3982 7092 
2052 9460 9749 7996 8002 2206 4419 8811 2852 
8298 9882 36 349 3820 372 5969 3542 4112 
3825 8186 3635 8262 6450 7470 2251 95 6587 
652 9809 8650 924 3620 239 1515 4418 5252 
9401 2817 6385 8514 4317 6250 3203 5869 257 
7841 9538 7000 1794 7547 5506 8114 8862 8236 
9363 8027 1168 6783 5536 3800 718 7401 5343 
6605 1654 3097 1178 1540 8178 832 5064 9101 
5595 1907 2168 1017 8368 5960 1842 4306 5435 
491 3612 957 9926 3178 2515 9084 261 7182 
3186 1781 5698 6468 3535 4254 2922 4024 5554 
5150 4903 1588 3404 9446 6199 6835 484 6948 
212 3809 48 7227 5426 9011 7044 197 1187 
6876 5953 1881 6278 3657 467 4440 3771 8413 
1730 1231 6330 8753 3830 3677 2802 3698 2600 
4979 5276 831 5638 8878 3093 9690 4133 7071 
4822 1255 4855 7346 9908 7156 8424 5230 6112 
818 8833 8678 5786 5521 7173 7843 2708 1852 
7780 4160 756 9001 6847 5924 4119 5497 8468 
5911 5586 8328 9925 672 723 3384 2447 2214 
7999 5528 1911 3047 1068 7174 9319 1270 854 
6699 615 126 8011 5533 1023 2031 733 7228 
8348 1608 5124 2419 3476 4407 9547 548 4921 
4169 8616 4416 5627 6745 2409 8217 9026 6353 
293 3325 5195 3276 3346 4310 2333 112 3757 
2208 7757 4447 7045 3906 1811 5350 4204 4350 
6320 3049 1917 1763 457 7752 6945 9931 4188 
4353 5123 7747 9553 1878 5501 4219 5787 5325 
3561 482 4565 2944 6741 2176 1655 8452 9137 
4928 3286 9414 5660 5808 2557 3422 5966 9819 
746 5457 5298 7702 2130 8642 5656 8254 7862 
2672 6664 8819 7600 7398 7320 5903 7769 2304 
1719 807 2418 7755 6477 8668 2426 8040 8966 
8398 8872 4535 8149 8022 5558 2376 7281 4478 
6474 3848 6204 3487 7269 5272 7656 7801 7636 
8699 2354 9517 676 2142 9727 7488 2983 9202 
233 5370 7426 3089 2092 1885 1805 9472 3942 
9654 501 3014 3595 7144 8447 7295 9314 6392 
4378 3892 5610 2049 8248 4470 4758 1152 4154 
3672 8745 1110 3009 1465 6685 7241 1596 5052 
2946 1283 9328 8754 8661 430 8597 9238 7126 
2054 9468 7255 3768 2923 1359 4123 5716 4504 
1867 2004 2791 7414 8784 8687 318 350 1499 
622 8106 3253 2210 7465 5086 637 7373 2396 
8441 6718 2841 6484 5289 7867 8547 5569 8799 
9858 3449 1386 5012 2412 1316 6562 8101 4507 
9570 1780 9427 4555 5967 6870 8667 8522 1496 
4197 8747 1185 4761 1234 7947 6221 9206 6414 
9111 516 840 3991 2190 6675 3141 7138 538 
3719 7896 680 9132 1239 6217 6301 8788 6504 
6281 4999 9820 6413 9104 7854 4752 4905 7137 
6974 9697 5471 9700 8539 1488 7223 4165 688 
9787 6117 93 2882 4319 5496 3793 5613 3118 
1075 3688 8674 8748 5483 4080 4607 4583 706 
9406 4654 2065 2084 5131 222 9952 3588 9921 
7307 9657 7721 2620 7160 5555 8639 1905 5655 
4359 4794 5045 7562 7193 5782 406 9090 7690 
2276 6328 4039 3240 5324 9494 8942 6007 7030 
2834 6874 7895 1011 3972 9311 395 2805 1467 
362 5326 5621 4253 9768 8571 7921 4393 8273 
679 8354 8375 7914 353 3521 2644 4452 6461 
7667 7627 5461 6070 6350 375 7672 1371 7943 
5179 6213 343 6780 1461 9367 689 1581 8876 
1303 7218 2663 1039 3338 5241 2866 8306 4402 
6766 4840 7235 1923 3078 9905 8285 9798 8084 
2299 5302 4408 8643 6661 5743 6604 7566 3940 
5922 446 5120 8461 1319 7816 3086 6495 4484 
783 3687 4917 6071 6629 4294 9075 109 7534 
1991 8162 6442 582 5537 3229 6123 5104 7819 
709 6784 8709 7542 9046 3358 1077 4848 6672 
1443 2671 6883 2573 3295 6433 2591 3934 9061 
6432 5696 3931 6716 9604 3770 9493 539 1906 
8263 8507 8985 3794 780 1210 6808 673 4487 
1524 2844 9066 7948 6994 440 6371 9219 83 
5171 6880 2865 627 1598 5111 9640 3073 6510 
7265 5387 5053 9826 2043 3340 6969 2231 7395 
1956 3862 9002 2519 5094 3339 6786 9366 3200 
8459 3407 3351 8146 8672 2037 3650 8912 2894 
8001 3150 315 546 4117 3353 9564 1174 98 
5043 5936 8282 7802 4936 1186 2863 3381 1135 
3850 7341 5037 7225 550 8475 2597 5109 2263 
6958 8655 9714 7677 12 1045 3474 7354 1746 
2146 4961 4572 2166 1368 3605 4883 6509 9514 
1438 274 8081 7425 6947 8588 8731 6779 1731 
1097 7536 4818 2965 4168 1470 3336 4864 5864 
9585 9089 9525 5790 5737 376 1046 3730 2739 
7686 1119 9200 4910 3566 1575 6703 5574 5544 
1216 600 9092 159 2769 1577 4058 3775 9505 
7136 1860 6944 6025 4610 9752 5954 1851 8902 
695 5265 3416 1449 789 2606 9464 770 911 
510 4992 2034 9231 9869 6182 3331 6755 5422 
2587 6236 8337 799 6734 7531 9912 6912 6608 
958 1995 3493 7673 2364 3350 5826 8046 4498 
1504 7220 9552 7551 2979 2252 4850 9834 2044 
1072 145 4997 6959 6849 2401 1380 4773 1291 
6476 5187 5742 8854 5212 3259 7003 7561 7520 
5942 8640 8675 6352 9990 2472 5329 7872 9617 
2246 5697 5713 9793 7294 4308 9362 8429 150 
7965 6696 1381 6506 7901 5262 8610 3988 1659 
5886 9874 9445 9074 6814 1883 9896 9822 2469 
7141 9510 2985 8288 6973 6804 6054 6292 9989 
1662 5916 5221 3382 7909 2474 3921 1133 9991 
9664 7643 9770 8266 3144 8295 255 5527 1620 
4320 9626 7610 6858 6937 4027 9416 6693 2726 
8168 5900 8018 4144 2810 6412 8749 6004 2525 
5462 7657 6678 2491 7834 2711 6764 2787 8450 
7633 2149 8221 1962 7352 3459 1877 6987 3316 
6376 8465 8692 3268 2599 9286 1587 5851 7097 
1346 7390 3835 1535 4382 901 5940 3762 2816 
7380 7089 3799 8818 3352 3045 3665 4275 3272 
5404 965 9734 6964 7351 9919 9655 7869 9447 
1469 9878 5637 6044 2217 3159 9708 3979 3191 
7646 4958 6223 4334 790 5263 9516 8371 4699 
7779 6846 4804 92 5718 8693 2362 6181 6624 
9763 8934 7639 1058 3028 8477 3330 9197 8875 
4248 8825 5604 6483 1308 9616 5316 2905 6351 
3167 1093 7829 6845 2114 8827 6017 8062 1891 
2759 1042 5788 6347 9576 7733 4849 1219 6118 
3682 8879 1712 4955 7631 5295 568 66 7766 
4044 1284 912 949 4042 6711 8061 1375 1286 
4598 2277 8780 6662 3004 9879 6109 4093 23 
4791 4821 4543 5831 99 6761 994 4529 1711 
9302 736 8073 2885 8968 9188 2595 6613 8707 
3739 8510 8049 3947 7774 9051 3715 2766 5415 
6310 4274 5865 2636 1583 1507 1405 9160 8379 
1703 5905 6941 4477 6556 6537 6065 7046 2808 
88 1297 5088 9099 4097 9577 9299 5493 5023 
9127 1847 7148 2082 9334 4006 3513 7369 3192 
8844 1155 9612 33 9161 8457 2061 5833 5024 
5081 4765 3546 8358 8593 3923 4970 5689 6247 
9666 8473 7595 757 6840 1667 3454 953 3143 
8738 9279 4755 495 9730 4258 5278 2105 4338 
1790 2024 9598 6126 847 2932 819 4130 4246 
3362 1773 25 2554 5735 4156 1913 2420 9077 
2660 8999 941 526 1696 4299 6750 323 9386 
2786 7964 6923 1947 3282 4678 7370 1693 1889 
8559 5425 2036 9025 3270 8679 9372 8301 7789 
7912 2664 2083 2249 7988 3409 5486 6538 8953 
3308 8058 7763 6055 7945 2745 3222 4974 5225 
5258 8247 981 9599 3490 7271 9720 5939 6863 
310 140 9492 9634 2014 8455 5097 8977 2466 
6246 3834 254 4174 6826 8408 2552 3485 9078 
2021 7900 6763 531 8232 8708 3623 5828 5118 
9935 4187 2545 2345 4941 7409 2516 2991 3841 
4185 1964 9715 797 8988 663 7433 3734 993 
3946 4793 2616 6710 7893 834 3234 6635 1785 
4695 1950 8261 264 4405 1400 3357 7621 4437 
2107 2465 3496 1422 6862 988 8634 7486 6704 
3418 7870 9721 1290 3928 9152 914 9643 1218 
1733 374 2119 3547 8715 6282 6878 6115 3824 
4233 5234 589 8802 5098 6445 5824 2414 3652 
2943 8557 1884 6018 286 6267 7920 7474 1429 
3724 1553 1902 2382 7103 5250 753 4601 6057 
2254 7567 3424 4679 5306 2274 3125 7356 4646 
5664 4300 8327 4425 2893 9271 2874 9180 3148 