# vtk DataFile Version 4.2
Generated by LIGGGHTS
ASCII
DATASET POLYDATA
POINTS 10000 float
-0.00554393 0.0009982 -0.0407332 -0.0026477 0.0010388 -0.0410159 -0.000831979 0.000899354 -0.0410946 
0.00105732 0.00089675 -0.0410889 -0.00433443 0.00232497 -0.0408742 -0.00157971 0.00253592 -0.0410772 
0.00248434 0.00250757 -0.0410251 0.00113603 0.00369783 -0.0410888 -0.00564657 0.00408056 -0.0407099 
-0.00321309 0.00438547 -0.0409751 -0.000889791 0.0041953 -0.0410914 0.00246468 0.00490253 -0.0410337 
-0.00442871 0.00578866 -0.0408655 -0.00267097 0.00610028 -0.0410191 0.000493 0.00537369 -0.0411032 
-0.00660125 0.00709977 -0.040573 -0.0045266 0.00762843 -0.0408552 -0.000917138 0.00649055 -0.0410895 
0.00183043 0.00658487 -0.0410625 -0.00292255 0.00858003 -0.0409997 0.000981741 0.00816777 -0.0410946 
0.00270757 0.00874107 -0.0410158 -0.00429483 0.00973058 -0.0408794 -0.00055545 0.00910672 -0.0411014 
-0.00256916 0.0104268 -0.0410282 -0.000896029 0.01112 -0.0410946 0.00179877 0.0102888 -0.0410662 
-0.00642303 0.0121146 -0.040592 -0.00229669 0.0123648 -0.0410391 0.00180242 0.0120831 -0.0410616 
-0.00480153 0.0128653 -0.0408242 -0.000321952 0.0130027 -0.0411072 -0.00372662 0.0143087 -0.0409297 
-0.00189464 0.0141881 -0.0410613 -0.000208176 0.0147949 -0.0411033 0.00128841 0.0138036 -0.0410806 
-0.0062832 0.0151015 -0.0406266 0.00129425 0.0158367 -0.0410786 -0.00533908 0.0166656 -0.040756 
-0.0036391 0.0161169 -0.0409411 -0.00178578 0.0161002 -0.0410608 -0.00437067 0.0184114 -0.0408719 
-0.00274059 0.0176707 -0.0410143 -0.000770044 0.0177408 -0.0410943 0.00252374 0.0175261 -0.0410315 
-0.00596571 0.0192041 -0.0406677 -0.00180766 0.0192056 -0.0410651 0.00104683 0.0191994 -0.041096 
-0.010112 0.000898154 -0.0398387 -0.0073172 0.000899557 -0.040443 -0.00399205 0.000899614 -0.0398284 
0.0032822 0.000895457 -0.0409776 0.00506881 0.000898132 -0.0407906 0.00667887 0.000897804 -0.0399977 
0.00845554 0.000895715 -0.0402263 -0.0115548 0.00189218 -0.0394464 -0.00888006 0.00216984 -0.0401411 
-0.00572454 0.00249297 -0.0397544 -0.00286714 0.00242428 -0.0398429 0.000117973 0.00232438 -0.0405409 
0.00389128 0.00222481 -0.0399402 0.00543529 0.00266381 -0.0407409 0.00721045 0.00266494 -0.0404669 
-0.0120089 0.00362614 -0.0392998 -0.010299 0.00322033 -0.0397884 -0.00730442 0.00297885 -0.0404528 
0.00386268 0.00377738 -0.0409231 -0.0108963 0.00500061 -0.0396325 -0.00873501 0.00403103 -0.0401601 
0.00629857 0.00423632 -0.040616 0.0082205 0.00413974 -0.0402818 -0.0125895 0.00531943 -0.0391245 
-0.0089528 0.00581659 -0.0401129 -0.00704128 0.00534378 -0.0404985 0.00470158 0.00536914 -0.0408308 
0.00629288 0.00618873 -0.0406164 -0.0119988 0.00700577 -0.0393167 -0.00837418 0.00751541 -0.0402413 
-0.00515189 0.00666277 -0.0394796 -0.00208418 0.00740253 -0.0399319 0.00355238 0.00714951 -0.0409537 
0.00789947 0.00694438 -0.0403385 -0.0107449 0.00823963 -0.0396767 -0.00728217 0.00865974 -0.0393864 
-0.00565087 0.00882474 -0.0401224 -0.000322572 0.00774322 -0.0399423 0.00459965 0.00875392 -0.0408466 
0.00695653 0.00875859 -0.040509 -0.0124132 0.00941766 -0.0391879 -0.0106703 0.0100352 -0.0396287 
-0.00902918 0.0094817 -0.0401 -0.00300607 0.00958155 -0.0395122 -0.00128824 0.0100138 -0.0397398 
-0.00682265 0.0101285 -0.0405295 -0.00521297 0.0104647 -0.0395287 0.00041639 0.01052 -0.0399531 
0.00353838 0.011065 -0.0409518 0.00534558 0.0108664 -0.0407509 0.00746583 0.0108174 -0.0404212 
-0.0081494 0.0113234 -0.0402839 -0.00374773 0.0115321 -0.0402481 0.00637996 0.0123593 -0.0406023 
-0.0116686 0.0128155 -0.0394152 -0.00950886 0.0124652 -0.0399894 -0.00229588 0.0133459 -0.0395354 
0.00302656 0.0133572 -0.0407383 0.00460433 0.0125058 -0.0408457 -0.0111448 0.0145942 -0.0395669 
-0.00918394 0.01423 -0.0400488 -0.007515 0.0136722 -0.0404099 -0.00523663 0.0140827 -0.0395805 
0.00520952 0.0143792 -0.0407752 0.00799854 0.0140837 -0.0403199 -0.00971042 0.0159422 -0.0399384 
-0.00799301 0.0155531 -0.0403035 -0.00454523 0.0157317 -0.0394402 -0.00265399 0.0151766 -0.0397684 
0.00408367 0.0160587 -0.0409049 0.00674296 0.0160161 -0.040548 -0.011397 0.0163702 -0.0394948 
-0.00650525 0.0164054 -0.039417 -0.00166608 0.0172072 -0.0395733 -0.000222236 0.0163128 -0.0401523 
0.0026459 0.0161504 -0.0398383 -0.0101933 0.0176666 -0.0398245 -0.00702026 0.0177499 -0.0404963 
-0.00553261 0.0179184 -0.0394866 0.000959262 0.0176614 -0.0401706 0.00568055 0.0174595 -0.0407075 
0.0089905 0.0176039 -0.0401092 -0.011745 0.0192026 -0.0393922 -0.00869416 0.0192016 -0.0401703 
-0.00259493 0.0187435 -0.0395234 -0.000362786 0.0191109 -0.0399986 0.00272097 0.0192054 -0.040424 
0.00439482 0.0187635 -0.0408718 0.00611859 0.0192032 -0.0406483 0.00788719 0.0191014 -0.0403388 
-0.0163206 0.00109477 -0.0377209 -0.0145341 0.000893448 -0.0381173 -0.0129738 0.000893428 -0.0390003 
-0.0114986 0.000899981 -0.0379461 -0.00963291 0.000892131 -0.0381081 -0.00802628 0.00126045 -0.0388297 
-0.00616479 0.000894383 -0.039059 -0.00300716 0.0013857 -0.038393 -0.00167234 0.000933547 -0.0395097 
0.000209652 0.000899135 -0.0394473 0.00210455 0.000957799 -0.0396329 0.00518803 0.000897312 -0.0389987 
0.01086 0.000891607 -0.0396466 -0.0152945 0.00251159 -0.0381538 -0.0136149 0.00255636 -0.0387833 
-0.0109084 0.00277854 -0.0380303 -0.00917219 0.00259012 -0.0384321 0.00139524 0.00257539 -0.0393015 
0.00629845 0.00231245 -0.0389626 0.00818713 0.00221052 -0.0390292 0.00974115 0.00226759 -0.03993 
-0.0076483 0.00346633 -0.0387655 -0.00591928 0.00394138 -0.0387109 -0.00425722 0.00287619 -0.0387939 
-0.00141935 0.00325505 -0.0391721 0.000210627 0.00390332 -0.0395688 0.00468564 0.00374293 -0.0393305 
0.00733223 0.00376845 -0.0387798 0.00941053 0.00376241 -0.0389908 -0.0156805 0.00425494 -0.0379967 
-0.0139938 0.00430457 -0.0386528 -0.00456965 0.0049759 -0.039274 -0.00300712 0.00409652 -0.0392129 
-0.00120779 0.0050078 -0.0395216 0.00214125 0.00420697 -0.0394156 0.0109279 0.0044983 -0.0396207 
-0.015619 0.00604454 -0.0380103 -0.00777958 0.00525399 -0.0388692 -0.00596255 0.0056724 -0.0382247 
-0.00302151 0.00588963 -0.0392761 0.000696347 0.00603249 -0.0394515 0.00332957 0.00582943 -0.0397643 
0.00571562 0.00521105 -0.0392249 0.00748581 0.00549554 -0.0393574 0.00943594 0.00543669 -0.0400041 
-0.0138467 0.00653486 -0.0386979 -0.0102458 0.0066007 -0.039138 -0.00872973 0.00662269 -0.0381766 
-0.00709992 0.00690751 -0.0388651 -0.0010034 0.00660676 -0.0387298 0.00208319 0.00717216 -0.0393861 
0.00487183 0.00688405 -0.0397595 0.00651589 0.00747701 -0.0393274 0.00895746 0.00677224 -0.0388995 
0.0109004 0.00659451 -0.0396317 -0.0151978 0.00777658 -0.0381925 -0.0129606 0.0080225 -0.038201 
-0.0091484 0.0082525 -0.0388011 -0.00576383 0.00803655 -0.0385088 -0.003712 0.00776056 -0.03926 
-0.00169816 0.00862672 -0.0386721 0.0035478 0.00820019 -0.0395041 0.0081705 0.0083516 -0.0392484 
0.00979714 0.00798347 -0.0399202 0.0121677 0.00781618 -0.0392572 -0.0159455 0.00950921 -0.037881 
-0.0142828 0.00938417 -0.0385505 -0.0110211 0.00897732 -0.0380669 -0.00627027 0.00974149 -0.0382753 
-0.00442554 0.00922271 -0.0384936 1.16432e-05 0.00914295 -0.0388703 0.00163665 0.008899 -0.0395874 
0.00399212 0.00993426 -0.0396341 0.00576061 0.00964109 -0.0395 0.00751045 0.00997684 -0.0388367 
0.00930698 0.00995377 -0.0388411 0.0108144 0.00944667 -0.0396606 0.0125288 0.00960306 -0.0391451 
-0.0136868 0.0110654 -0.0387613 -0.011896 0.011114 -0.0388847 -0.00969302 0.0112302 -0.0387045 
-0.00796748 0.0102371 -0.0388614 -0.0037696 0.0109193 -0.0385609 0.0114998 0.0110972 -0.039461 
-0.0158647 0.011305 -0.0379161 -0.00669589 0.0114672 -0.0385418 -0.00520475 0.0122268 -0.0392003 
-0.0021445 0.0115619 -0.0394397 -0.000426929 0.0120631 -0.0395853 0.00245958 0.0112685 -0.0395342 
0.00460681 0.0116108 -0.0392885 0.00637452 0.0113591 -0.0391034 0.00970155 0.0115524 -0.0399482 
-0.016293 0.0132002 -0.0377322 -0.0134488 0.0128469 -0.0388368 -0.0101015 0.0134893 -0.0386163 
-0.00798817 0.0126122 -0.0390393 -0.00611895 0.0133846 -0.0381818 -0.00362836 0.0127379 -0.0385034 
0.0015962 0.0128419 -0.0394433 0.00328305 0.0127385 -0.0388243 0.00488883 0.0133915 -0.0393093 
0.00735148 0.0128634 -0.0391764 0.00935256 0.0130452 -0.0390203 0.0110457 0.0128339 -0.0395878 
0.0127469 0.0125488 -0.0390753 -0.0147809 0.0139543 -0.0383515 -0.0128613 0.0145997 -0.0390388 
-0.00857954 0.0143729 -0.0382803 -0.00698708 0.0147028 -0.039035 -0.00116358 0.0148435 -0.0388174 
0.00012247 0.013859 -0.0395976 0.00173984 0.0146313 -0.0395483 0.00374777 0.0146982 -0.0397847 
0.00644756 0.0143875 -0.0394728 0.00971395 0.0145515 -0.0399365 0.0121351 0.0142299 -0.0392679 
-0.0140821 0.0158334 -0.0385951 -0.012207 0.0158933 -0.0379713 -0.0105329 0.0152483 -0.0380081 
-0.00805802 0.0160716 -0.0385813 0.00525735 0.0157254 -0.0395867 0.00845202 0.015863 -0.0400223 
-0.0160141 0.0166291 -0.0378538 -0.0129073 0.0172179 -0.03902 -0.00968497 0.0167931 -0.0383409 
-0.00345361 0.0171591 -0.0394519 0.000338227 0.0160799 -0.0384623 0.00684323 0.0160799 -0.0387548 
0.0101833 0.0162889 -0.0398221 0.0118027 0.0172518 -0.0393716 -0.0145739 0.0175505 -0.0384356 
-0.0112685 0.0177823 -0.0383969 -0.00840264 0.017735 -0.0391737 -0.00684582 0.0177475 -0.0382786 
-0.000168689 0.0177989 -0.0387838 0.00250246 0.0178467 -0.0392698 0.00417942 0.0174029 -0.0397238 
0.00571097 0.0174792 -0.0387928 0.00723848 0.0175391 -0.0397302 -0.0156135 0.0191968 -0.0380176 
-0.0134332 0.0189276 -0.038844 -0.0100106 0.0192072 -0.0389309 -0.00843184 0.0191652 -0.0380814 
-0.0071182 0.0192021 -0.0392978 -0.0043048 0.0192064 -0.0392665 -0.00124077 0.0192058 -0.0384425 
0.00131075 0.0192042 -0.0393224 0.00452075 0.0191974 -0.0391332 0.00629777 0.0191974 -0.0388655 
0.00979714 0.0192003 -0.0399142 0.0115358 0.0190656 -0.0394502 -0.0179875 0.00145003 -0.0369553 
-0.0133263 0.00089361 -0.036791 -0.00686165 0.000891666 -0.0374099 -0.00469102 0.000895371 -0.0380374 
-0.00141422 0.000892453 -0.0377354 0.00184819 0.000892684 -0.0378639 0.00348864 0.00120572 -0.0385157 
[...]
POINT_DATA 10000
FIELD FieldData 7
id 1 10000 int
8304 4009 8557 357 2334 2718 4325 9297 7282 
67 3357 4377 8883 5782 4179 5759 1652 5764 
7076 4368 3 6862 9849 8578 838 9028 4745 
6274 1434 1555 6385 7602 1958 2974 9962 9957 
7752 9409 6831 1411 3885 9782 9564 5846 5640 
5074 7415 5041 9604 3868 9474 8546 8190 1381 
4423 5230 9536 3405 3714 2447 3417 3035 7245 
6204 141 1368 9871 2212 1310 5866 1224 4232 
9004 3050 473 5392 6449 1884 4171 7837 4595 
6943 9947 5433 2734 9130 3692 1401 9402 9622 
3954 7199 3961 4628 768 2295 8790 2797 160 
1559 1213 4802 6679 670 9693 9584 7440 4343 
3043 1173 834 4677 2251 5809 6602 8984 8829 
5127 4234 62 2547 1716 9902 4437 8877 4240 
772 4833 2861 1100 6726 1968 3381 2847 8334 
438 7046 1597 9084 9430 6354 6909 4263 5474 
8365 102 599 974 6401 5436 912 1909 4767 
6246 9630 5154 2530 4749 2207 288 4037 1718 
8353 4120 8791 3156 9717 1036 9968 6819 4485 
4070 5133 5061 5799 9335 1997 1553 3905 1697 
8033 1065 6192 9545 7781 6422 3585 2941 2922 
8765 9936 5642 2582 3991 6186 7965 3194 6782 
7000 8764 6430 4510 4208 9914 5346 2802 7557 
4273 2222 5487 2462 180 1045 3092 8518 1876 
9502 1819 9688 673 1874 6991 4791 9659 6498 
5311 929 1394 4229 913 2873 2365 7983 3507 
1680 7843 5582 1990 3649 5473 4852 6043 2600 
5116 8311 1892 7671 3754 7861 3871 273 1603 
5079 2018 8351 8846 4475 5229 6060 3460 3318 
9149 4218 222 7379 9079 2956 1552 8552 2089 
1568 2698 2463 1081 3293 8469 3284 8871 8310 
1557 1473 6587 6555 1973 3367 2487 8057 9356 
3243 1456 8697 8641 6691 2015 804 5062 5178 
7353 452 6395 4235 4476 5333 7554 3693 4435 
2891 1661 16 3958 1006 7604 4601 2458 5780 
5067 7423 3596 8780 3577 4481 991 3842 620 
1619 7923 8384 7669 5207 2133 9438 6018 4256 
2403 661 1404 7618 8327 5269 1362 4341 2380 
1192 9903 7401 7942 290 7186 4176 254 1533 
3543 1528 3101 8242 7758 8692 9906 5970 9235 
3470 9953 1309 6520 3505 1523 8099 3570 2075 
245 8085 4250 8686 3012 8991 817 5622 3595 
9518 2999 2467 4236 3009 8502 6174 3011 4210 
9999 6398 11 2960 39 8586 1422 7883 3747 
108 1847 9526 326 7410 1800 1330 7904 1233 
5867 7304 6830 8123 6615 6524 4143 8529 1865 
4276 444 9614 9341 2875 6505 1779 3612 3708 
5632 2664 4473 2770 7258 1756 4030 4313 7480 
1323 7695 7188 8372 7652 9024 1889 2398 5307 
6364 3932 3033 9694 9726 4 8746 4358 923 
4536 6781 4277 7213 4104 1014 4783 1650 3646 
9064 9321 3525 1502 5152 5689 3700 3765 5871 
3309 2749 4025 1940 8611 6436 3563 4514 1035 
3002 4886 8575 7506 6656 4074 6307 1267 6240 
9592 5001 8806 5694 663 3977 1524 2837 4587 
9213 3890 4482 2002 4999 6648 885 6770 9741 
5885 3288 1356 1374 4863 3900 3410 7952 5853 
439 9575 2179 3089 1294 945 4427 7276 7676 
1996 6673 600 4215 9439 3129 1176 745 5732 
3131 1780 6599 7996 625 6460 9646 5126 3822 
1005 197 4472 761 2980 2541 1 6882 8601 
809 3329 4550 677 2359 1747 8923 1164 2706 
8349 1929 3420 8831 9578 5916 3625 4414 3626 
3435 3406 7696 8723 4669 5956 5408 4648 6829 
9008 2842 4618 998 7364 295 2087 1057 6872 
8257 5610 2719 4397 3429 4929 370 3587 2789 
1558 1078 1416 2989 642 2807 4217 8444 7808 
3439 532 1741 9308 6812 9069 1139 1462 8025 
2804 3955 1475 9755 5620 9811 4053 9978 737 
3620 2243 1212 6144 2117 7720 1679 562 7503 
2030 3816 1194 1316 5172 9544 5906 6152 1993 
5701 9658 7725 925 7247 3174 3388 4307 8514 
7311 8626 3281 3339 1228 6731 9201 3215 6619 
1412 6924 4776 6073 7106 8801 9595 6588 8358 
8592 1806 4173 1832 2929 8313 9095 4083 9727 
4849 1750 5264 2254 2080 3133 3902 3142 1743 
4808 2561 6277 9764 6955 8970 5361 2498 2307 
7267 1512 4926 2217 7897 4127 9178 4989 4895 
4646 3116 4289 6638 6133 9701 8055 9396 6696 
9825 7974 1641 2151 4153 1136 839 216 9774 
2680 1253 9769 3390 8704 6184 9036 60 3645 
2202 3472 6976 2614 1960 7442 7289 5484 3879 
4484 8816 508 9794 561 1604 4894 3493 2901 
4416 2883 2766 8113 9579 3163 1091 459 4100 
819 6884 1171 4726 3397 4443 9022 8382 4152 
4012 3914 5685 900 8174 4410 5818 787 601 
6222 8698 7225 4317 8385 4117 3851 2437 7887 
4720 4811 7937 4105 8001 9531 10000 3027 22 
3859 4930 9650 1651 8422 1498 3130 7141 1074 
3110 9608 9667 8070 8511 3423 9844 1742 4106 
1026 5746 2979 3015 719 3575 6978 3941 1821 
3126 4300 6875 3910 1767 950 3220 8549 8994 
8173 6815 2414 7795 3487 9725 9420 1703 3074 
5555 6742 4297 4753 4909 519 3963 7472 2649 
3774 6970 4602 6543 5254 5005 1978 3783 5097 
5569 1952 2656 4107 2103 875 65 5952 2331 
6046 4026 4690 7463 9860 6029 8835 2955 3572 
9010 8103 4822 7977 3534 8030 572 8361 7766 
8979 5548 7839 8342 9179 9444 4865 425 9132 
8937 590 1894 621 2860 955 1259 647 801 
9894 2374 8554 3623 5790 2879 3546 3604 2867 
9916 3555 2272 2619 2678 250 3535 523 2531 
5534 1345 4119 1303 3857 3539 6079 8768 699 
1625 15 3308 884 2109 3825 5288 2479 1561 
1614 6866 9841 1371 8251 3956 9679 2358 2686 
5160 516 7705 8019 4506 2371 7098 5191 268 
9496 4606 2714 2348 7060 3915 2609 5294 8550 
4056 1531 7077 7124 3715 736 4857 9997 3385 
6080 857 463 3018 1710 3490 6727 2356 3782 
7852 1938 5777 1393 4737 3073 5139 2292 6373 
4532 4118 4622 4440 3123 8682 870 4049 9949 
708 7988 3946 3254 1032 6467 3517 1248 2169 
3091 2491 7312 3258 7434 9883 7470 922 3212 
6814 5310 5380 7435 4375 3787 7993 2052 5609 
7561 3608 472 1079 2321 1814 3770 7859 5048 
687 4350 4759 5646 9025 1813 1453 9108 5824 
3772 9291 8759 7355 2510 4499 4928 6404 6185 
2084 3992 2535 3516 4401 966 3202 5305 6077 
6163 5459 2056 8882 7357 2633 5058 1991 4356 
7771 4064 3718 920 8024 1438 7689 9394 5924 
6717 8154 3936 6777 1906 9607 9875 4715 6508 
9057 40 1402 6337 14 8370 5590 1982 8870 
1666 4906 4751 6491 8848 1086 8963 8804 6268 
6833 8779 3295 8742 8807 8011 4329 3344 2051 
9124 4394 3494 7193 9530 9232 8997 4558 2713 
7089 9207 2558 4068 4205 5697 2230 4727 880 
7058 4212 3313 3792 7499 3916 2669 7444 9822 
9170 9280 5102 2213 6826 4488 447 3829 1108 
1791 1796 3424 92 6614 1664 4912 190 5648 
10 9994 9486 7563 2102 2083 4455 6516 902 
8852 4310 4629 5905 479 5118 7539 9863 5167 
5072 4244 3632 7350 1912 1132 5331 4147 5468 
1839 9626 1409 8417 3299 9813 6428 4627 5317 
3169 8364 2147 2618 2588 6778 8652 3811 9750 
361 2198 5652 3950 4741 9383 2854 4918 1971 
4920 4554 2940 4411 1677 3580 8097 6800 1023 
4259 8895 8252 2760 5493 4500 6028 3113 2457 
6009 9591 816 35 1076 4078 4324 3057 4884 
5983 4907 6054 1566 6056 728 7611 5945 6329 
7822 3653 5391 1795 638 8143 4705 2464 7802 
976 5691 4658 2884 4803 3705 4008 9830 9715 
6904 3694 2935 4914 2519 6407 4546 1127 3488 
1735 2682 915 3831 3677 4458 5373 458 9034 
7938 8290 7535 464 8269 3724 441 1315 8170 
607 7133 5900 279 6270 8328 409 310 7603 
5947 799 5784 209 7157 4426 7176 1487 3883 
3676 9239 6063 9935 4202 7375 6773 3504 9737 
3211 4947 9382 3296 203 1825 3801 985 4365 
1069 5791 9580 9610 2112 9015 990 5761 9302 
5012 4085 3827 1007 2077 3981 1773 1870 2725 
2047 6527 8810 8119 4524 2937 4541 4814 6044 
9483 3556 8389 7118 5637 6023 8397 5984 7065 
9985 734 794 9644 263 1041 6397 5086 3549 
6025 5283 1024 3622 6469 3042 5985 3789 5411 
8367 9515 8782 8952 2835 2354 690 88 6142 
1028 1903 8275 5775 395 7358 6789 107 9915 
5306 2743 5593 3173 570 404 8710 730 327 
3445 7633 1011 4286 8359 5661 6920 3256 8798 
3266 2921 432 7737 1599 5246 731 6393 7200 
9217 2931 1044 9489 7144 6156 6761 411 3599 
6411 8672 796 5767 4949 457 1702 4545 743 
5032 9220 6423 7016 3579 47 155 5398 4389 
7460 9252 3189 4654 1321 872 5428 3502 6707 
4841 509 1833 2574 1043 1645 3498 9946 9922 
7223 1240 2985 9099 4109 2907 6418 2323 2549 
1572 7450 589 7846 3434 3109 7168 7086 4974 
4334 3762 1797 5605 2006 3013 986 9284 1529 
5577 9360 6409 7446 8847 4374 159 3569 8451 
9288 952 8187 5266 3697 4873 6624 3197 3463 
375 2176 5174 1856 3426 5419 4578 8542 6919 
3975 1717 1113 1872 688 301 8875 4671 2317 
989 1204 3567 1794 5166 3574 1326 186 2072 
941 4542 1771 6325 5377 8074 9714 2263 8955 
5935 2597 3451 3669 1601 6175 8781 7748 6711 
1764 9463 791 1067 265 1639 6977 4843 6607 
4198 5842 7169 5566 5912 4988 5879 8899 2157 
2481 7765 8354 3927 7581 3072 6035 5531 8239 
8635 2175 4846 8585 6645 319 1634 3430 4867 
7027 5396 5860 9734 1451 2913 5232 5300 2238 
5884 9961 6836 1395 2874 2255 3172 3696 1701 
1540 9061 6503 8845 7930 531 8124 1802 53 
4272 8715 3994 4128 1165 1841 7945 6304 9600 
1166 3454 8474 8868 8243 8237 477 7050 6522 
9975 8519 6126 3893 2869 5901 3259 3214 6293 
2699 4942 2208 9271 8634 2626 5120 2274 270 
4722 5766 5451 5615 2853 9596 4971 6076 4733 
4626 874 954 1862 4615 3802 4242 2282 8516 
418 797 2938 4844 4399 7493 3248 219 1157 
8413 9988 6362 4756 1896 8544 4941 2160 2606 
1600 7754 3922 8758 8223 4605 5829 585 8193 
7601 539 3305 8075 3858 6045 3848 1244 8773 
7655 4072 6048 8080 9640 1350 5407 2442 2757 
5216 9629 8968 4311 8728 5634 789 2085 1342 
7659 8293 9507 8838 5482 4101 5293 3010 3725 
2031 3170 4520 9738 8064 3471 2132 4121 2384 
3137 6387 121 7774 1189 5456 3999 1941 174 
1754 1799 9472 8261 4223 7430 1403 5903 1967 
4381 6571 140 3993 741 6444 7230 5119 5018 
5478 5374 1959 3739 6437 5523 6097 1278 2557 
2163 8751 3270 6088 6683 6284 3003 1808 7123 
9721 918 3917 7844 6148 9428 1120 7078 1897 
3192 2701 8296 9303 6620 7333 7033 6388 5240 
7428 4666 5130 1822 8739 4203 1150 9161 7100 
7203 5201 2260 7152 9519 9920 283 4421 5039 
455 612 341 5968 8284 578 52 9323 6226 
9683 9662 5260 3001 978 8212 5638 5614 773 
2746 5312 4114 2543 9369 8623 7736 2580 5187 
3808 9963 1765 9466 6098 9775 5144 1440 8685 
3874 4508 3345 9670 5245 2517 3659 2353 4709 
757 5922 5848 3077 5243 5489 7338 6151 4021 
3503 1406 4084 2204 2932 9939 1449 1055 4716 
3584 7873 8481 1373 7913 4789 5664 7836 6011 
2642 6391 8429 4983 9375 8610 9299 853 4718 
9147 331 6805 2904 177 3660 3457 1084 1472 
3611 6783 8378 7681 4793 876 5124 4695 5558 
1590 7793 4213 8468 6384 256 2305 1811 20 
1784 2345 865 7595 1021 7943 9926 4761 1635 
2662 9194 6264 4801 6647 3377 8569 3499 392 
8106 1700 1640 347 2950 9327 8561 848 6309 
7780 1034 8545 9340 5668 3152 5372 2668 2595 
9116 3704 5277 2404 6482 5718 518 9262 3593 
5356 6187 732 4880 8151 5148 6366 8 1214 
4539 6733 4096 8250 8466 3366 5320 9751 803 
2644 2032 3552 3760 4717 7730 6700 664 9690 
9672 6233 4701 7986 9415 9620 4004 2702 1436 
9521 3887 565 4728 8646 3039 54 811 6369 
98 6214 6665 6951 645 4268 5189 421 1312 
3733 4638 6534 8702 5720 110 9514 8832 3419 
1753 9422 2092 7367 7335 4226 2375 8379 2182 
5388 2973 5659 9218 239 2877 9880 287 6069 
4853 1881 8229 7662 7327 7794 6344 6481 6734 
587 8639 2813 3448 3375 4357 493 8360 2878 
3028 2122 4639 2844 3085 3973 685 1962 2933 
3437 2003 2344 6135 3008 6019 3036 1663 6051 
4164 2903 4804 2471 2421 9512 1016 7588 6346 
5159 9706 8225 5011 4378 2093 6546 7553 1858 
877 6655 2441 9677 4809 9041 4944 5758 5056 
5196 7980 9114 7941 513 8104 4571 6895 7412 
4890 4493 9300 5864 7918 5981 3540 3431 814 
6368 659 6487 2512 6339 4419 5633 5843 8472 
2405 5749 8286 5402 2420 9138 9689 385 8985 
6847 6890 2183 3418 721 2234 1383 3059 8039 
7054 1156 2917 6577 42 9901 1913 6134 5195 
7818 9696 5625 1183 1377 7885 5105 175 4501 
6583 1970 7411 4731 3847 1147 3319 8484 4905 
5929 4676 6358 1829 9359 5218 4043 8932 2456 
9910 1883 8975 2565 4207 9746 8366 770 1300 
3466 8714 9581 9184 3225 1562 4255 5406 6499 
3638 334 5462 1124 5973 5345 8658 4487 6419 
1333 7386 2425 9743 6712 2360 2679 8273 3764 
613 4530 4073 9796 3673 2726 1235 9664 7181 
5168 3843 9056 5173 8205 1320 1477 616 766 
9873 4668 3743 9728 6111 6343 2799 7187 8892 
7150 1683 560 8485 888 624 4462 1058 1739 
943 1972 9256 8961 1726 7857 6115 4060 1905 
5053 1137 6471 3492 1195 9066 1705 2948 859 
4667 4994 2336 4408 9174 2468 4489 7797 8606 
5971 101 6132 908 9171 2124 8071 5684 72 
9996 3846 4978 1895 1878 648 5786 9760 1133 
9698 7345 7205 4569 1838 4339 2408 1807 2206 
6229 3283 992 575 1824 6842 4991 6957 8076 
827 8924 7349 1019 4696 318 2210 7011 1092 
242 6565 8911 1817 7855 7709 1138 6330 8058 
8957 6322 512 684 8565 134 7392 5233 4001 
1258 9440 5887 5381 1129 9487 3876 3823 9190 
7334 4688 8805 5533 2242 6838 9330 4260 4736 
1525 5567 97 6486 5836 5561 6886 6670 8141 
7714 8987 8858 7424 4441 4869 5289 7497 4321 
8772 8122 8267 3233 5366 8966 9027 7363 724 
6291 8470 8494 5162 9605 1392 9938 2567 9616 
7729 4505 3384 627 8967 7719 5081 6153 6356 
9799 6137 5703 5914 4270 4960 8480 3223 4788 
7377 2613 3560 3373 1994 8302 7156 4483 1706 
4879 7489 1256 4673 7615 5434 2167 5636 6112 
7955 58 6183 7378 3449 8246 6494 7028 6310 
3489 6301 2490 2504 7631 975 7711 8731 2667 
1976 7532 2199 4125 727 5014 3177 3132 1983 
7332 5458 9042 8750 5316 3474 2945 9460 4016 
3998 427 6414 396 1367 2099 9017 6154 6760 
6215 7342 9087 5272 9163 4331 8153 4748 7732 
6172 4465 4302 6165 4610 9529 8556 5928 9655 
462 4643 8986 7801 9845 2908 6171 9 3880 
2905 2096 8671 1179 1855 9986 4742 4067 5814 
5643 311 7348 9943 5730 5613 1249 4156 837 
9918 8928 2256 3097 8319 2827 322 491 1668 
3924 3867 5046 7498 1499 3565 4828 1378 3621 
7679 4063 2720 9088 6650 1128 965 833 2756 
3763 8320 8312 9991 9928 2308 3550 2480 2266 
6598 6958 2382 4816 9425 3098 4573 4778 168 
5525 3571 2755 9117 3522 3368 8493 3159 2475 
7682 6553 1153 9011 8241 1687 9342 1140 4192 
2225 109 8817 4280 8392 3650 8709 5908 3380 
8268 2130 5546 4874 4293 264 4831 795 836 
6227 1257 1508 6182 8839 1714 9307 7637 8690 
3654 4664 3681 2038 2585 3245 2858 1849 2118 
2969 5728 1226 2060 9151 9072 1446 6251 5993 
3370 1859 6664 5550 8981 2014 3099 3287 5644 
9197 2926 1518 2388 1761 6747 871 7257 1184 
5963 1684 1375 1532 6947 8206 3657 3814 6722 
89 5337 7649 1272 5919 4438 6061 4316 6942 
9778 6795 9240 5100 8199 4953 2731 815 1560 
2655 6355 6441 2401 2575 7103 994 2173 7528 
4172 3551 1818 2981 7939 6094 5665 633 7991 
8278 5595 71 8535 1729 435 559 4175 825 
3285 5559 7264 3828 1426 583 577 8786 7777 
7749 6064 5706 6245 1602 5129 1828 6560 9639 
5084 9817 2200 3227 7390 90 2792 1318 7529 
7418 1489 7587 2503 3238 5224 2992 6178 5193 
5825 2572 23 4262 8437 8292 2257 4961 433 
1252 6618 2366 500 1965 488 4746 937 1695 
7070 5282 7402 6289 55 3154 2007 6852 1935 
9560 8357 5445 7686 8132 4032 6341 697 7177 
7107 3456 4243 6193 6994 9126 7466 6190 1536 
1981 2857 1879 8101 9277 5741 8525 9386 1934 
9399 4140 1633 5771 9065 7315 2269 8757 1500 
3444 1662 717 9142 7299 1575 1920 3712 470 
4006 7533 3912 6479 5621 4434 380 957 1193 
7130 1209 2339 6687 9869 5979 6592 8483 6231 
7909 2440 1752 7693 2188 5724 6582 6312 9139 
9814 4233 2417 637 1325 1501 6504 354 8315 
7740 4876 7356 3691 8916 7541 8642 7826 3685 
3974 3919 4094 6979 8007 6960 3246 3938 6316 
2688 1031 6290 5955 8172 1205 8755 2866 3328 
2846 3203 580 5630 6839 3207 4111 2839 4836 
2521 7398 963 4468 9044 9704 608 6858 3253 
8197 9387 5800 4052 5540 9071 2223 1826 7262 
3404 2228 6689 6548 2068 3855 2131 4150 182 
2488 6200 6311 4436 8609 386 8625 4323 5297 
9476 786 2027 1094 5873 6266 8464 3387 3198 
6286 3590 528 3538 3271 3399 5354 6261 5931 
4630 7558 4216 6066 4984 2042 8138 2300 5581 
8548 1964 7971 7931 8951 158 5528 2761 5607 
2995 4200 9411 6459 5740 8066 5629 5804 1596 
333 1704 9046 1302 5601 6260 4911 1167 7326 
6434 6484 4372 3352 460 9857 6381 3414 8329 
2201 2712 6124 5206 4719 5342 1234 3069 1692 
4363 3141 4755 4214 4108 5907 5322 8901 8668 
3721 7620 6072 9429 7104 6050 2193 3870 6125 
7530 4264 818 581 949 3812 7421 1322 85 
4470 2088 2290 2501 7486 1117 2373 515 162 
378 505 605 5869 422 1414 2971 1197 8853 
9621 7175 2186 5349 8522 4735 7921 5223 6666 
6403 9182 3360 9331 5849 6780 2819 7786 8920 
1916 4713 5250 4981 143 3249 1221 300 5016 
9236 4799 8541 2407 5259 9484 6197 7890 7645 
1607 8851 8112 7867 5045 4866 9272 9246 6802 
2796 3273 7075 2397 309 9431 173 5508 4824 
4889 6188 3745 6762 657 2657 8789 7318 7750 
2205 2394 556 5881 6843 6974 2872 4463 1514 
2465 194 692 6848 8965 8496 3453 3845 9925 
3179 6002 7796 1937 643 8088 2035 1468 2484 
7544 1932 8894 8447 1013 3019 2836 5425 1783 
3564 2507 5798 4580 5787 9887 5865 4504 9789 
9096 973 3897 6757 2039 8638 5966 8371 2554 
1689 2957 8219 3117 4379 4807 8576 5241 5599 
2777 6351 8766 5304 7623 2962 6314 3022 5495 
4823 4337 5515 3111 339 5676 4456 3438 7684 
5463 2347 2218 9998 2041 9105 4565 8478 2351 
2717 9941 9497 3512 4319 4186 9067 8930 8477 
9509 5810 1682 9955 3886 696 6254 9348 705 
5600 5138 4738 3139 8612 747 8695 1159 9932 
7090 1187 1282 7142 1217 829 5796 6468 7340 
7491 5891 3588 793 6901 5526 2249 2967 6180 
3698 475 214 8833 9146 7061 7816 4840 529 
6324 2010 8488 7179 3427 2787 8182 4993 7369 
8362 1119 536 5422 5323 1338 5355 3080 7688 
8809 2653 9320 6531 8681 5998 5795 8815 6581 
4392 2495 6406 1398 1732 210 9270 4854 8666 
9068 9535 379 9485 9895 3312 4915 9695 344 
7091 5707 4975 2604 1595 8409 547 8336 2579 
8640 4790 1988 169 2107 453 2383 4564 7803 
850 4752 4815 4818 5227 5475 118 7116 8537 
7648 5321 1629 7261 6708 6763 2803 7865 779 
6431 3740 8415 400 21 2073 8098 3070 4318 
8052 1660 4396 1347 9598 6828 1530 6732 6594 
467 8712 461 7524 2596 8523 910 2930 9723 
2306 4184 2750 5301 6445 7224 2248 6218 8340 
4366 2219 7479 5314 3860 5499 3363 7585 7914 
5742 4555 4002 495 9202 9549 276 4046 4453 
5653 7973 1314 4312 6603 1564 3025 609 9617 
9437 4370 3988 8903 2116 9907 9570 2528 7606 
6489 971 7870 456 5877 139 9372 3180 3477 
2700 8999 2156 4479 2171 5597 6993 2232 3873 
7209 701 5390 7275 231 9840 8207 183 233 
127 7978 5037 6283 2723 2824 9625 5677 9870 
4995 8693 8200 4090 1815 6894 946 7183 961 
4734 5603 7697 8314 9427 9376 8583 6217 3866 
2885 4762 269 4433 2460 32 7476 9433 7251 
7433 1313 8446 4611 2724 9976 161 4864 417 
4344 3264 6675 5163 7856 764 2301 9859 2513 
6591 7788 3392 1755 8602 2036 6295 1675 9244 
4586 8944 8727 914 4584 2181 4845 5750 1479 
9716 5284 387 5073 720 5253 6117 6037 2795 
3391 2774 7127 3230 4196 7114 1902 2772 5953 
907 2502 3386 6864 3178 964 5236 640 7527 
1459 6730 4388 8178 4387 6235 7252 8355 9165 
5410 6119 9200 1506 5739 8830 2707 6296 1901 
7609 3330 4619 3707 221 9322 5932 7549 7405 
6317 9049 2661 7708 3514 5108 5393 7029 6071 
9043 1585 8192 9783 6973 9045 6372 7562 2865 
1943 8038 7589 760 4267 1911 218 7292 1556 
1584 7222 8510 2598 7001 4548 3190 6100 2338 
28 882 2341 2280 3785 2924 9152 4597 4092 
5680 478 251 7970 1886 1606 2868 3021 8820 
4166 5040 1579 8486 4856 293 2411 1148 2091 
5339 1880 7853 4517 9858 9326 8045 9488 4773 
2977 1096 7325 739 7399 8089 5033 3689 7321 
9319 7520 6114 7564 3143 9534 6746 1691 4940 
401 5313 9258 7521 5654 4014 3121 6052 2814 
5754 3068 7512 1722 1208 1002 1792 3079 939 
2568 5851 226 1630 4069 7201 7772 707 8669 
9891 1376 8558 7882 3853 5068 8775 6724 7778 
8274 2584 3048 150 4649 8005 1099 8377 7831 
1274 6485 2165 5962 7501 5547 6336 8238 769 
5745 1669 9078 6272 1080 1587 4305 9269 1835 
1266 7031 5811 4973 237 4670 3290 4998 2170 
5491 1068 8428 2800 7538 806 9154 729 5872 
7895 9945 5351 3904 349 2650 1975 9805 655 
8878 5512 3526 5832 4825 1336 4247 3150 4710 
2149 2473 2180 5586 6685 5830 9191 9711 771 
164 6379 6244 1738 1053 8859 8527 79 4204 
4228 4982 8432 5721 5748 8960 4609 4409 3104 
1405 6952 1163 7441 632 3909 1497 1917 1071 
2061 8134 3193 5343 18 1413 93 8725 1110 
2237 8218 7592 5344 4931 1866 4613 3964 5542 
4707 1182 6087 6710 9565 8343 350 1122 5878 
1827 1867 7204 3701 6201 6318 5360 8828 3824 
9141 2509 8720 4347 5880 3796 4936 7903 2751 
2683 4139 9243 207 3252 8084 8118 7964 2806 
4326 8573 7056 7059 4398 9553 6606 2912 652 
8395 5467 8271 3582 3527 3533 1042 8471 5794 
5858 420 4760 9418 6511 2949 524 8749 4919 
1592 5893 4672 2350 5280 899 6963 7297 4589 
5776 9682 5089 5249 6402 86 5103 1946 4023 
5751 1864 7464 3413 7990 1928 8368 7891 7616 
6530 4124 1141 27 2000 8307 9339 1576 5125 
2262 3643 5150 6772 1327 5049 5276 5772 4332 
8411 9745 133 7045 103 6945 8881 5480 7919 
6194 2455 17 2559 4706 5101 7866 595 8533 
1361 4951 3889 5324 7354 7162 8887 3826 9183 
8656 5379 6888 1686 2890 1719 3501 805 1448 
137 502 628 7178 51 8231 8376 171 7574 
3300 2277 4997 4518 8787 9541 302 6302 4680 