# vtk DataFile Version 4.2
Generated by LIGGGHTS
ASCII
DATASET POLYDATA
POINTS 10000 float
-0.0189833 0.000903229 -0.0364621 -0.0180443 0.00237918 -0.0369312 -0.0183179 0.00560171 -0.0367966 
-0.0189809 0.00759515 -0.0364609 -0.0187065 0.00980156 -0.0366044 -0.0181677 0.012613 -0.0368658 
-0.0183477 0.0144032 -0.0367764 -0.0190486 0.0160485 -0.0364181 -0.0180874 0.0175961 -0.0369117 
-0.0188139 0.0192022 -0.0365463 -0.0205555 0.000897147 -0.0355939 -0.0211952 0.00255982 -0.0352155 
-0.019633 0.00254276 -0.0361053 -0.0210523 0.00434935 -0.0352988 -0.0194874 0.00436839 -0.036186 
-0.0177292 0.00419505 -0.0358431 -0.0201297 0.00604101 -0.0358379 -0.0214716 0.00773799 -0.0350478 
-0.0177017 0.00864437 -0.0356653 -0.0200655 0.00889331 -0.0358695 -0.020755 0.0105045 -0.0354791 
-0.0177373 0.0111008 -0.0358349 -0.0213079 0.0121785 -0.0351521 -0.0194496 0.0115059 -0.0362103 
-0.0197757 0.0133472 -0.0360306 -0.0204696 0.015248 -0.0356408 -0.0182433 0.017102 -0.0351986 
-0.0196989 0.017712 -0.0360717 -0.0206041 0.0192029 -0.0355689 -0.0220841 0.00107046 -0.0346715 
-0.0188405 0.000895157 -0.034677 -0.0198236 0.00246522 -0.0340506 -0.0180298 0.00240512 -0.0341615 
-0.0189115 0.00394327 -0.0345139 -0.0225844 0.00410008 -0.0343442 -0.021729 0.00596573 -0.0348908 
-0.0200181 0.00532299 -0.0341977 -0.0184976 0.00610707 -0.0350854 -0.0197088 0.00747638 -0.0348261 
-0.0229559 0.00808615 -0.0340947 -0.0186285 0.00872913 -0.0341348 -0.0220189 0.00948649 -0.0347103 
-0.020407 0.00898254 -0.0341134 -0.0190513 0.0102881 -0.0349159 -0.0231014 0.0112928 -0.0339994 
-0.0195593 0.0122848 -0.0345971 -0.0218879 0.0138301 -0.034781 -0.020126 0.0139994 -0.0343907 
-0.0184207 0.0139567 -0.0350182 -0.0220251 0.0156162 -0.0347145 -0.0190836 0.0155698 -0.0345403 
-0.0203973 0.0167844 -0.0347014 -0.0220815 0.0174101 -0.0346625 -0.0221331 0.019205 -0.0346265 
-0.020616 0.0185647 -0.0338942 -0.0189366 0.0190788 -0.0347613 -0.0239599 0.000945611 -0.0333924 
-0.0222319 0.000908997 -0.0328969 -0.0205775 0.000898602 -0.0335931 -0.0189275 0.000893204 -0.0328854 
-0.0238293 0.00274336 -0.0334867 -0.0220492 0.00253564 -0.033635 -0.0209999 0.00398877 -0.033501 
-0.0245102 0.00433381 -0.0329941 -0.0188356 0.00488538 -0.0329175 -0.0240909 0.00605745 -0.0333091 
-0.0223183 0.00571324 -0.033213 -0.020989 0.00688678 -0.0335392 -0.0190075 0.00659547 -0.0334338 
-0.024401 0.00780866 -0.0330727 -0.0243376 0.00960765 -0.0331194 -0.0225572 0.00986792 -0.0330474 
-0.0213482 0.0109368 -0.0338387 -0.0196186 0.0109881 -0.0333562 -0.0177432 0.0109854 -0.0339038 
-0.0243951 0.012125 -0.0330799 -0.0227083 0.0128913 -0.0332845 -0.0209349 0.0126803 -0.0334739 
-0.0183917 0.0127526 -0.0333156 -0.0241956 0.0138984 -0.0332278 -0.0222994 0.0146408 -0.0332356 
-0.0185493 0.0145355 -0.0331705 -0.0252095 0.0154365 -0.0324623 -0.0237781 0.0156188 -0.0335288 
-0.0207008 0.0154666 -0.0335186 -0.0221821 0.0164317 -0.0331296 -0.0236038 0.0174008 -0.0336499 
-0.0221811 0.0183174 -0.0330484 -0.0190989 0.0176271 -0.0337134 -0.0250646 0.019087 -0.0325754 
-0.0236292 0.0192009 -0.0336353 -0.0192785 0.0192056 -0.0328779 -0.0176144 0.0192046 -0.0335539 
-0.025728 0.000895952 -0.0320566 -0.0240117 0.00118056 -0.03161 -0.0205797 0.000897889 -0.031795 
-0.0266595 0.00271645 -0.0312898 -0.0252687 0.00259775 -0.0324183 -0.0227428 0.00239467 -0.031986 
-0.0206509 0.00257256 -0.0324493 -0.0187601 0.00311171 -0.0326889 -0.0256423 0.00416272 -0.0316061 
-0.0227416 0.00409481 -0.0325582 -0.0199135 0.00403453 -0.0316783 -0.0255073 0.00584112 -0.0322271 
-0.0237328 0.00532629 -0.0317157 -0.0206208 0.0054603 -0.0325117 -0.0261092 0.00746312 -0.0317428 
-0.0230653 0.00695474 -0.0321382 -0.0212467 0.00694717 -0.0317218 -0.0194415 0.00662027 -0.0316964 
-0.0246256 0.00841891 -0.0314035 -0.0221401 0.00848717 -0.0319731 -0.0200296 0.0080835 -0.0326075 
-0.0178769 0.00785579 -0.0327189 -0.0259812 0.00950327 -0.0318554 -0.0234661 0.00978727 -0.0315079 
-0.0208269 0.00976928 -0.0325562 -0.0189363 0.00950545 -0.0325538 -0.0248416 0.0108842 -0.0318717 
-0.0265939 0.0114213 -0.0313409 -0.0230221 0.0113978 -0.0321781 -0.0212396 0.0114114 -0.0319474 
-0.0197328 0.0123611 -0.0321835 -0.0182673 0.0113315 -0.0322237 -0.02368 0.0130616 -0.031726 
-0.0218549 0.0135763 -0.0318559 -0.0262864 0.0142897 -0.0316005 -0.0235627 0.0148526 -0.0318448 
-0.0202516 0.0140427 -0.0325255 -0.0265882 0.0160401 -0.0313447 -0.0217821 0.0154121 -0.0317036 
-0.0176508 0.0156324 -0.0320714 -0.0240461 0.0167375 -0.03204 -0.0206497 0.0172542 -0.0326589 
-0.0192389 0.0161369 -0.0327276 -0.0256887 0.0174715 -0.0320822 -0.0221674 0.0172991 -0.0315653 
-0.0190434 0.0177192 -0.0319047 -0.0264599 0.0192019 -0.0314557 -0.0233028 0.0191858 -0.031867 
-0.0209145 0.019203 -0.0321336 -0.0177876 0.0191869 -0.0317674 -0.0270988 0.000945414 -0.0309001 
-0.0253109 0.000908876 -0.0303114 -0.0222915 0.000893031 -0.0311109 -0.0176291 0.000962136 -0.030437 
-0.024858 0.00261979 -0.0306265 -0.0224628 0.00243323 -0.0302084 -0.0207168 0.00220279 -0.0305662 
-0.0188551 0.00187928 -0.0313909 -0.0234735 0.00371725 -0.0309594 -0.021602 0.00359634 -0.0312708 
-0.0182281 0.00349879 -0.0309529 -0.0278327 0.00408457 -0.0302427 -0.0269615 0.00589903 -0.0310243 
-0.0254229 0.00535802 -0.0302729 -0.0219785 0.00535098 -0.0313395 -0.020362 0.00555374 -0.0305804 
-0.0278567 0.00722987 -0.030219 -0.0244149 0.00673054 -0.0308351 -0.0226409 0.00696879 -0.0303884 
-0.0176327 0.00694363 -0.0311628 -0.0272444 0.00882002 -0.0307798 -0.0206158 0.00844142 -0.0309512 
-0.0188464 0.00826574 -0.0312608 -0.021735 0.00995513 -0.0310161 -0.0178166 0.00992045 -0.0312164 
-0.0279663 0.0103141 -0.0301055 -0.0261149 0.0101326 -0.0301865 -0.02301 0.0109154 -0.030189 
-0.019805 0.0101737 -0.0311346 -0.0248647 0.0114226 -0.0301634 -0.0190447 0.0117474 -0.0306435 
-0.0272312 0.0130035 -0.0307875 -0.0254041 0.012766 -0.0312327 -0.0225088 0.012622 -0.0304374 
-0.0207402 0.0127146 -0.0307397 -0.027604 0.0147397 -0.0304573 -0.0242611 0.0138982 -0.0302507 
-0.0225473 0.0144175 -0.0304254 -0.0205158 0.0144977 -0.0308097 -0.0189109 0.0137287 -0.0313659 
-0.0176778 0.0147244 -0.0305275 -0.0248953 0.0155218 -0.0306945 -0.0190643 0.0157755 -0.0309765 
-0.0280674 0.0165927 -0.0300252 -0.0231458 0.0160992 -0.0306211 -0.0207335 0.0162549 -0.0305186 
-0.0267261 0.0176538 -0.0305794 -0.0236328 0.0178293 -0.0306779 -0.0207176 0.0180223 -0.030795 
-0.0174976 0.0175275 -0.0309894 -0.0247711 0.0192087 -0.0308188 -0.0220555 0.0192001 -0.0305708 
-0.0193863 0.0192067 -0.03096 -0.0283062 0.000898846 -0.0295735 -0.0235746 0.000900011 -0.0298606 
-0.0214344 0.0009121 -0.0295388 -0.0195907 0.000891252 -0.0300901 -0.0288429 0.00259299 -0.0292829 
-0.0270753 0.00221581 -0.0296276 -0.0237774 0.00249081 -0.0289853 -0.0195674 0.00245287 -0.0292021 
-0.0260857 0.00372788 -0.0299206 -0.0204006 0.00386344 -0.0299591 -0.0293765 0.00423948 -0.0287474 
-0.0268608 0.00518727 -0.0292084 -0.0244985 0.00412768 -0.0291678 -0.0222363 0.00421859 -0.0297153 
-0.0186785 0.00506319 -0.0301931 -0.0285478 0.00570184 -0.0295677 -0.0235397 0.00543896 -0.0299381 
-0.0291491 0.00737143 -0.0289813 -0.0190021 0.00699429 -0.0299994 -0.0260543 0.00770383 -0.0299634 
-0.0243278 0.0079277 -0.0295045 -0.0228748 0.00874336 -0.0301714 -0.0214437 0.00793978 -0.0294403 
-0.0194277 0.00883054 -0.0296616 -0.0290911 0.00917027 -0.0290347 -0.026882 0.00900138 -0.0290342 
-0.0243867 0.00970023 -0.0299721 -0.0216812 0.00970652 -0.0292361 -0.0176033 0.010018 -0.0294411 
-0.0208135 0.0110932 -0.0299708 -0.0192329 0.010727 -0.0291778 -0.0287991 0.0119856 -0.029335 
-0.0270304 0.0117514 -0.0295196 -0.0199262 0.012426 -0.0291623 -0.0274396 0.0135717 -0.0291038 
-0.0255637 0.0127367 -0.0291584 -0.0179396 0.0130449 -0.0299579 -0.0292152 0.0137792 -0.0289154 
-0.0259606 0.0143564 -0.0298322 -0.0212709 0.0137362 -0.0293557 -0.0193346 0.0140877 -0.0295176 
-0.0278433 0.0153159 -0.0287769 -0.0233301 0.0153378 -0.0290016 -0.0195164 0.015854 -0.029242 
-0.0293656 0.0172299 -0.0287621 -0.0262089 0.0161594 -0.0295904 -0.0244943 0.0166607 -0.029363 
-0.0178044 0.0163126 -0.0297092 -0.025412 0.0182027 -0.0294912 -0.0221625 0.0173369 -0.0297714 
-0.0190589 0.0176082 -0.0301144 -0.028906 0.01915 -0.0292217 -0.0272162 0.0192072 -0.0298289 
-0.0235195 0.0192045 -0.0295305 -0.0205491 0.0192048 -0.0294599 -0.0178904 0.0191142 -0.0299583 
-0.0296879 0.000920617 -0.0284279 -0.026226 0.000892171 -0.0287662 -0.0236023 0.000894918 -0.0280691 
-0.0200801 0.000898661 -0.0283627 -0.0183427 0.000893982 -0.0287987 -0.0288567 0.00223397 -0.0275235 
-0.0270909 0.00216827 -0.0278428 -0.0255472 0.00255138 -0.0286784 -0.0214607 0.00251273 -0.0287205 
-0.027666 0.00374488 -0.0284859 -0.0182289 0.00365141 -0.0291677 -0.0306014 0.00408284 -0.027437 
-0.0256201 0.00483488 -0.0279542 -0.0230215 0.00424118 -0.0281048 -0.0203501 0.00459118 -0.0283213 
-0.0186349 0.00511786 -0.0282193 -0.0299171 0.00595599 -0.0281952 -0.0255603 0.00640955 -0.0288186 
-0.023973 0.00579739 -0.0282357 -0.0221727 0.00602397 -0.0289295 -0.0176022 0.00640101 -0.0290443 
-0.0274106 0.00676405 -0.0285435 -0.0245176 0.00745144 -0.0277876 -0.0204441 0.0065006 -0.0290568 
-0.0302063 0.00833976 -0.0278777 -0.028026 0.00829791 -0.0278422 -0.0262546 0.00790594 -0.0277671 
-0.0229204 0.00826814 -0.0284361 -0.0194952 0.00779203 -0.0282 -0.0178268 0.00841509 -0.0285786 
-0.0251116 0.00913717 -0.0284305 -0.0202012 0.00955565 -0.028216 -0.0297076 0.0107392 -0.0284113 
-0.0278888 0.0102975 -0.0283165 -0.0260844 0.0106497 -0.0284704 -0.0232901 0.010124 -0.0285579 
-0.0211291 0.0111103 -0.0281996 -0.0284583 0.0118266 -0.0275866 -0.0244799 0.0115049 -0.0284129 
-0.0227175 0.0118207 -0.0286681 -0.0176299 0.011699 -0.0288173 -0.0300773 0.0124867 -0.0280129 
-0.0230734 0.0135571 -0.0289478 -0.0184425 0.0131862 -0.0282212 -0.0304713 0.0141885 -0.0275823 
-0.026391 0.0145646 -0.028031 -0.0247072 0.0141874 -0.0285351 -0.0178518 0.0148016 -0.0287418 
-0.0296103 0.0154751 -0.0284976 -0.0251054 0.0158136 -0.0278874 -0.0215641 0.0158147 -0.0289918 
[...]
POINT_DATA 10000
FIELD FieldData 7
id 1 10000 int
5956 9554 8558 3537 4134 4391 1973 8618 518 
69 9369 4260 5564 8091 4332 328 4373 3024 
1032 1223 9686 6704 1101 253 4234 2935 1733 
3638 2839 3857 9228 949 9730 2428 5317 2329 
7567 4258 9530 2807 3611 4499 2430 1649 6652 
2107 6069 4456 4437 1079 5900 384 7033 2649 
8455 2245 5284 1784 2243 6612 4560 1676 1271 
3249 1629 3965 6126 4784 1894 7720 7245 943 
4669 6800 2789 4767 6894 4509 1218 174 334 
7046 8586 2458 4803 4920 4458 1516 1824 7972 
1892 8926 1437 1909 2703 204 371 2434 3410 
9470 3088 1619 8890 8669 6614 937 515 8923 
1533 3606 3125 1666 3042 373 1785 1958 332 
7080 9386 4577 6245 7155 1031 1290 8155 3298 
906 6404 3832 8511 5007 9940 3636 3221 6115 
8715 1452 2491 3192 2182 6646 6322 5824 9424 
280 6658 1877 3343 3037 8232 254 1244 6165 
8081 4244 1664 5016 245 1964 7889 9235 2236 
4941 3916 2179 9734 6451 627 483 2558 6663 
323 1487 7912 4989 6842 2085 1900 2551 4313 
1189 8477 214 8693 242 4248 986 803 563 
2360 3287 3090 1788 3254 72 3590 1963 2050 
9563 3025 3822 514 1298 4755 1005 5250 8742 
8223 4435 4385 4308 5392 7054 2015 8818 976 
7871 4466 2217 6750 2292 5518 919 5224 3947 
7774 6044 5974 419 4274 2803 1071 5425 5413 
3902 2036 5486 4666 1927 8168 1166 3130 519 
5023 3033 6910 4648 8353 7345 1477 1699 5939 
1028 4858 2341 5522 6118 4693 9437 8703 2771 
9374 7089 3288 4860 4598 8675 8061 4375 4827 
3400 6127 1046 1299 147 7409 2750 772 4800 
3512 3362 1216 939 9074 2479 2421 5844 3385 
9051 3587 1171 1436 4958 9227 5810 6065 6841 
6103 7993 2362 5112 4038 8953 6387 3076 1120 
6444 5024 7829 3003 8172 9760 1129 6417 2014 
4886 7238 3880 5126 1382 9841 2373 8800 8489 
9286 3834 7858 2496 5940 8473 130 6354 3405 
1089 4751 217 9617 4185 5404 6300 4235 1718 
1286 6506 7963 6212 3500 7036 8023 7235 6200 
3593 2393 1123 4299 3340 4164 9963 4380 728 
9291 1778 6429 5079 2451 8266 4699 1081 3099 
6790 8794 7090 4451 5316 1177 3451 4346 9059 
4294 4760 7430 2692 2787 6347 3075 8659 2045 
4177 435 2401 1414 2167 9601 4572 8807 2725 
6601 292 4697 7591 753 3730 3840 2667 119 
6964 7872 777 2312 5090 5199 1773 3352 698 
9477 536 8968 9445 1016 1324 9650 1340 9740 
9640 1617 7859 5603 7141 268 9769 3920 9053 
278 3856 6054 311 3952 4512 9792 1058 8930 
5380 5945 7984 3910 2063 3630 6755 3286 2915 
887 1823 8973 8549 6709 7706 870 5008 5386 
3850 4147 8030 5169 7915 7595 2599 5039 8666 
3927 5797 2933 4444 4963 7323 4382 5282 8782 
9768 1267 8858 901 3200 9057 6808 3841 3404 
8676 2873 4468 657 4552 6213 600 449 6734 
1598 1938 8205 8371 9742 3325 2619 1440 1050 
2685 7643 4307 1337 935 2507 8379 6182 3258 
447 3095 6214 9761 3382 3301 2895 9299 3318 
404 3028 6495 3866 3608 6263 4163 6678 8860 
4489 5978 2211 8296 7249 7690 531 6204 1219 
4999 617 3589 9447 3682 590 3521 3229 3763 
3794 4579 8301 4300 9664 2030 1375 7134 376 
7425 7468 6018 8544 8747 6445 680 1470 972 
1535 8001 2829 2955 2834 7901 4741 2282 7548 
3047 1093 4485 7759 4330 1851 2616 9942 1236 
6763 9474 7542 1581 1465 6310 9516 12 6849 
1043 9132 5616 5302 9634 4320 3036 9271 8247 
4044 1625 5637 5461 3476 6565 1210 6987 9127 
3739 2394 7522 4173 3801 5141 2578 571 6328 
885 8038 5441 6558 1780 2500 4839 3457 9889 
8640 6433 9543 2609 940 9339 2983 2635 3505 
2746 1556 9854 2579 2974 3758 6844 2199 5179 
293 867 2811 4191 8892 5204 6070 1858 8796 
4670 9820 8317 5752 4017 5534 9092 3416 8248 
3570 1300 2648 3876 8459 4836 8136 2196 1330 
4000 3407 6850 4440 4642 4086 6815 1285 4840 
1111 4128 6803 964 7494 2726 9605 3383 7102 
2488 8661 3067 1213 9558 6123 2791 3126 6232 
6830 4362 8839 8769 7071 4918 3926 962 6436 
1724 8815 7689 9300 4870 1775 876 7322 2166 
719 2462 4253 7407 57 8387 5077 9362 3453 
3569 6491 2290 7948 7488 6472 9268 227 5987 
1119 1677 3696 2475 5111 2644 509 4688 6887 
7779 3276 861 9625 812 3757 6515 2194 7625 
1449 9118 1652 2714 1407 2483 6071 446 326 
7027 4293 8910 1692 1923 8118 8608 9196 4117 
802 6325 2926 6428 670 5029 9946 5388 7983 
1231 429 4631 8176 5107 3044 8938 8642 7365 
6715 4085 2454 6064 3604 4746 7867 4820 5285 
5433 1722 7007 8704 2020 6716 7813 2016 9427 
452 7184 7497 73 2376 8313 1600 8458 81 
3706 5247 6745 3955 3065 1584 5699 3089 8790 
9712 9236 948 142 2899 996 472 9986 2316 
4752 4154 6175 4584 1904 1740 8539 9790 1561 
5288 6897 9931 7752 8695 5201 6030 132 1987 
2535 7114 3331 9349 4874 929 9770 4408 7732 
3976 6092 2944 7400 1744 4568 3267 1399 3118 
3698 2697 6075 1995 8534 4225 7490 7349 2968 
3863 1905 523 8525 4377 4355 6838 9045 638 
5235 1961 3584 832 6708 4041 8571 8015 6585 
4774 1491 6334 1637 2901 4040 8722 3748 4890 
1047 880 7670 7519 1582 2369 5533 3991 2655 
4125 331 621 932 7968 3182 6546 5195 3002 
421 4379 308 2913 5954 1811 1771 9930 7606 
7270 879 3293 1505 3386 8948 2857 93 4812 
7998 6421 9973 9624 4150 3392 6420 7642 8334 
1623 6548 4047 918 3771 4374 3723 8478 1025 
1547 1967 9414 8173 3708 3058 6629 7307 7398 
7333 7518 2716 984 8105 7465 7565 791 1007 
8067 8103 6226 3071 5012 6795 2686 1970 317 
2490 8231 4979 978 8822 755 5897 3833 2100 
4511 7492 7048 9431 4987 7801 1614 1202 8302 
153 6611 8392 8623 5064 5960 5260 8226 4059 
9806 5431 3578 8044 6580 6648 3516 1651 7514 
7641 4122 3218 3443 3438 9409 5076 9899 1066 
3109 4891 5122 45 177 9446 1065 7243 3207 
8094 7888 6945 2291 2509 2906 4554 4876 7844 
4110 8499 4419 7761 6222 8373 6934 4866 5605 
653 4901 4607 8175 294 8573 3726 2528 9441 
3774 9130 2117 8319 7932 6586 9266 5655 2210 
4680 7604 2908 1868 4947 247 2224 5636 974 
3837 8481 9775 3377 6670 8409 7039 1209 8979 
5468 854 893 7923 4721 1013 6890 8096 4045 
4305 4649 4349 9267 5063 5160 6977 2772 4037 
3933 3811 1856 619 2501 7635 9325 4667 1136 
63 5452 4358 651 4998 8596 1786 3111 8757 
2307 3595 2439 1183 4280 114 8864 3597 297 
8740 2226 411 6423 5013 5888 7044 853 7992 
6148 5525 4426 8270 9549 6685 4494 3987 6682 
3114 7203 3153 2017 4549 9904 6990 3859 945 
507 5644 6545 5925 7414 1515 273 3598 998 
2069 8283 8060 7938 6250 3635 7918 5194 1770 
7070 5049 2512 6114 5218 8862 5732 322 4062 
8966 2344 2002 547 4777 6752 1022 4682 2297 
7180 8336 4925 2303 1691 1052 5205 3360 6792 
2240 6659 432 1215 6820 3539 2914 4193 2041 
6799 6367 6771 4537 773 3261 4268 586 3014 
2135 9487 492 5983 3626 1920 2582 1753 2688 
5479 441 2607 2154 1350 5722 6053 8495 8705 
763 5191 7668 5270 7846 67 6925 1411 4008 
4480 131 3387 6641 6313 8100 4218 8418 5121 
8882 4314 1992 956 1315 2084 3051 5478 533 
5724 1254 6885 6255 4036 7629 3745 4424 8108 
7383 8361 5042 7025 2831 8750 8927 2412 7788 
5135 7975 5371 7714 7650 1366 485 4548 2937 
5499 9632 1646 3307 7749 4448 8889 8434 5180 
8556 7264 9382 9970 5938 6415 267 9356 8595 
8225 6458 5261 405 7276 6806 7934 3233 6859 
2104 5839 2283 2523 6225 7981 7679 7681 2704 
7590 3803 202 7168 256 8420 2601 6150 5015 
1526 4278 7555 2646 5350 3107 1887 8466 6271 
5565 7367 7053 9003 358 2534 3565 5712 4495 
5756 1427 601 8859 2962 470 1826 5073 4247 
91 161 4217 1965 208 6309 9128 9704 4833 
6147 1541 1895 4223 2897 1096 4025 9784 3559 
1343 7688 5990 7898 7122 7588 5242 3181 7427 
7971 4003 8660 5882 6647 1194 7242 9491 7990 
9821 5766 7317 3101 4220 4383 458 500 5998 
7868 219 8874 2910 5259 3671 3961 104 3283 
5773 3344 9294 7469 9212 6813 1821 6596 6743 
6754 5143 2737 3951 4376 4647 5040 5643 5540 
3644 4151 6360 8763 3839 5266 4411 7127 276 
6544 7185 6321 9676 6938 4915 821 5720 4931 
3470 6373 8086 1508 2631 6229 9193 4533 7312 
1801 1026 5599 6388 4655 2139 3645 7088 5442 
8204 7179 8502 6620 768 7549 6698 489 4323 
7017 8680 5904 8008 8585 4195 715 9388 7589 
8614 7618 3751 659 8925 7778 7466 8729 6100 
5504 2155 3783 8249 3094 4897 7076 544 6043 
7178 2385 9924 6982 5232 4108 2950 1331 5877 
2353 995 7038 1347 2411 4757 3534 8706 3012 
7758 1348 9668 9611 7951 1003 9278 9750 572 
1229 8380 9163 8884 7484 8322 3786 84 5994 
521 3326 1376 3430 9076 9393 5128 5929 3411 
7824 2238 966 5445 5495 183 591 7516 2963 
9971 752 8425 3140 6542 5273 5477 9969 5085 
7304 7166 532 4226 5763 5311 9174 1849 6455 
3110 922 1363 5946 8581 8735 7404 6259 7787 
1001 6481 2871 8076 9509 6462 6989 1640 1767 
1937 7946 4200 8383 5628 1082 7658 3471 1080 
2731 1802 4412 3882 7905 5606 5277 3403 5804 
2580 5355 4530 1264 1389 7718 8801 4021 3417 
5056 5813 9956 2904 1810 794 1388 3399 9744 
2888 6028 8945 4640 5612 3585 3497 4205 313 
9892 2265 2372 3363 3661 4271 5894 1812 9390 
6342 8658 1871 9489 4096 3911 8970 3205 804 
5058 7142 8657 352 9223 6168 702 5948 693 
5363 413 4657 9119 5768 4446 9 4410 4787 
4401 6457 8203 5222 6375 2286 9603 7798 6349 
5957 3797 5652 4255 8393 7985 1831 469 3145 
4853 6113 3871 9422 3105 5530 9352 4725 7101 
5301 7358 9533 569 8367 4731 8841 6249 8849 
7648 8929 530 5611 6372 1480 8479 5836 7944 
7919 8210 1984 218 6566 5084 4944 7389 2026 
422 882 5702 2175 5206 5853 5320 7935 4309 
525 1474 6464 3499 4289 9486 8165 3524 7874 
1406 2415 9536 8836 4878 8135 2929 1502 4284 
259 6594 6507 4057 5577 479 5764 826 3455 
3967 8548 3632 1590 5237 4105 7343 9080 6518 
9709 6288 9887 9341 8717 8279 2754 9305 8928 
2228 6164 3532 7436 3391 8315 2361 3241 8005 
2163 1261 285 9358 5290 9125 4131 431 6960 
1397 7416 512 6258 2144 8908 3428 8378 5709 
3957 9592 6939 8188 1684 8935 7881 3861 5617 
6599 4724 6348 8523 649 7081 9723 4020 5182 
3414 8333 7393 7697 7783 2230 7453 5517 6167 
363 4966 2087 1686 6335 7091 5047 658 6422 
3900 4904 1193 2239 727 8694 3175 9755 5344 
743 9781 6400 4070 6852 3522 7823 9909 5884 
337 6174 3273 2162 10 3264 2742 6900 1393 
6080 708 3673 152 4701 1109 22 2825 9518 
4983 1208 3746 6995 465 1996 18 3975 7751 
833 9678 4875 5369 2546 6369 6131 6524 346 
1863 4726 100 1098 3541 5048 4240 1273 2416 
4502 4540 5398 4287 3168 7150 8121 3628 4071 
9079 347 2072 7195 7922 4409 7087 4263 6241 
9512 4570 9737 8584 5208 6061 6625 4528 8560 
7448 5035 9143 3122 9194 1259 3248 4055 9041 
1036 1431 9484 3296 839 7530 1085 7786 8124 
1130 6569 3373 1979 9618 3251 5875 4352 1419 
5451 4192 7047 2355 6770 6211 2395 7540 3548 
4585 2785 6382 1307 9891 1972 9964 2261 7140 
9318 8791 645 1048 7501 7765 1243 3869 5248 
8033 9808 5356 1925 6499 8990 1621 4101 2842 
4500 4257 3056 8456 4599 782 6286 4632 5680 
6875 3322 577 3576 3388 2560 8850 8338 5556 
4605 9257 7785 232 3893 5361 7659 2610 3342 
2438 5996 7339 1586 9810 1237 4978 8647 6014 
694 7429 8568 7423 3790 724 3215 2403 7581 
5645 4962 850 8318 4142 6557 2504 8648 8169 
4175 3084 3106 1108 6102 7574 7849 9739 141 
1156 4899 2493 1131 2730 1896 2669 581 6133 
7793 1492 3577 6881 1302 4737 6134 8308 6779 
4881 930 2131 2990 2506 6209 6563 5050 1926 
5114 3465 8646 8246 5775 4083 4460 4597 1834 
4932 6503 456 401 4801 9993 5161 4712 4199 
5059 3780 4061 1521 5163 5798 3244 2308 5915 
4620 5308 1932 9420 766 7145 2743 2227 4927 
3992 6059 2289 4236 1514 1121 5164 3380 6326 
4520 6364 5437 5463 6448 3214 1334 6380 545 
2062 4291 8294 3531 8085 4522 4181 89 4430 
5547 102 5803 4081 1639 2851 1750 8959 7413 
9336 368 9254 9037 618 3867 3456 8772 1103 
2632 3814 5219 9273 7077 8880 6968 7257 2930 
3678 9392 4835 4616 2793 9429 5294 2883 5988 
8664 3875 7342 7554 6467 4473 1125 3631 6363 
1610 3945 4571 9221 9181 7925 7319 6519 2794 
9801 4651 2792 9301 8853 243 5708 7805 8391 
7014 234 4985 9811 7209 3813 2320 2134 5776 
3489 5896 6997 8314 5089 71 4069 409 3962 
3601 6500 6946 5117 75 2593 8321 1 7010 
4028 127 8376 2729 8469 4138 4618 5634 7364 
5177 6954 9149 934 5148 4873 5736 6597 2406 
1653 2896 810 1572 8164 8746 324 7724 2626 
5526 6244 1272 675 4019 8278 8555 6706 6857 
8239 6033 2279 4157 4626 4877 3818 5455 9091 
8474 894 1706 9438 633 6798 7362 7777 3501 
5254 2564 6717 7454 5770 4745 8654 56 2115 
8255 4959 9183 9120 5025 7261 779 9684 6081 
7315 378 7804 9283 4623 2007 9411 682 505 
2543 9154 7131 6076 4686 8035 8823 2339 9443 
5240 5358 2397 9413 4722 3266 5582 3156 5376 
1798 2183 2585 9710 2129 5754 1683 6931 2777 
6591 7959 5146 5820 1055 5862 9861 4018 6950 
1083 6019 4711 9327 8620 9738 3368 4344 7928 
3426 9190 7387 5347 2533 6156 8330 1326 5899 
9663 6311 3571 7074 383 607 6740 3466 9307 
5551 6532 5144 9513 8237 8805 15 8635 201 
7791 6788 3480 3059 3027 5751 6475 576 7471 
1554 9613 26 5562 9754 1260 2776 8222 8951 
9745 9893 5492 3736 9317 1952 7473 4172 558 
5843 8260 8743 9996 6789 8132 2613 2268 7904 
9008 4149 535 1295 8213 5807 2140 8831 9807 
3337 8407 7533 8803 4644 1010 6898 37 9679 
5825 8090 5038 2945 2078 5552 7006 4795 8622 
3112 8419 9462 5151 5748 5817 813 2918 3616 
7355 7476 5995 7701 5733 2976 9158 9901 487 
5944 9560 7221 2848 58 1313 7762 524 4909 
2090 8440 9049 5110 2324 5684 6949 4635 7247 
5459 5031 5878 2952 7957 8129 2492 5786 1317 
7443 781 9010 3931 5801 3169 7201 1176 8244 
8677 4124 8396 6942 2654 3226 9540 1574 5401 
8501 762 3374 8190 2541 2849 7583 3142 3477 
6588 4952 5456 3618 8102 4129 599 2921 4829 
4106 8470 985 3223 1603 5491 6337 5372 2939 
5411 7019 749 4155 7942 9876 4556 5510 4208 
9938 2071 3873 1628 205 2477 8041 570 4738 
8609 6358 2076 4850 160 5921 249 1222 3888 
2306 5859 1033 7883 5 112 8496 5267 551 
1854 2694 9244 608 3265 8051 2744 8526 6492 
4497 4252 6389 884 7287 1484 2319 1311 8798 
3389 6185 703 9495 6568 314 2770 1998 741 
7895 1668 9308 7976 6037 7619 36 2218 2400 
692 9219 5241 128 3535 5586 8924 2113 5211 
400 6695 2986 3356 799 2503 6045 8341 14 
2266 643 3722 3773 7412 4672 2172 5544 7909 
1800 1795 1038 9095 6693 3253 9117 9011 167 
1054 8837 6797 6672 1495 266 1434 8992 8917 
1428 2591 8698 5391 300 8362 5438 2276 6066 
8077 2284 2643 2757 7608 8269 1114 4857 1872 
1445 2796 3663 5966 1599 9847 7016 7539 968 
2801 6414 4565 800 1911 7792 5827 1774 6275 
6290 1719 8059 795 4937 8166 6427 9038 7461 
7753 2865 4318 6687 1670 2248 2437 1392 9869 
537 5405 1390 6978 5304 7250 1059 562 1669 
4202 6397 6158 1765 3034 2471 6998 9270 8019 
4243 3981 4830 3353 8777 9783 9015 7041 3711 
3495 7463 9140 7687 4438 5870 9985 1997 6986 
5009 8448 4394 3607 118 1494 474 6632 1412 
3890 433 1922 5937 2532 7111 7628 1024 8411 
1845 1551 1041 1027 5653 2102 7772 9648 9589 
1146 8628 1232 9184 3057 1739 497 503 2571 
4727 1648 9797 2925 8119 852 2764 4392 4637 
7194 5614 3689 7066 8154 9433 1143 5711 5368 
642 9402 2505 6027 1833 8017 9813 5000 8761 
6269 4612 6825 9182 6099 2862 7411 3163 3194 
9779 5868 6480 5419 3189 1358 4139 1592 6765 
805 3701 8888 869 6224 897 6 712 348 
1675 8170 5213 7603 4575 9852 761 5233 3815 
7503 3733 7644 3664 5823 1498 7838 9313 5700 
740 4198 7729 4239 4428 6049 111 2187 566 
5345 4558 7340 7378 5314 6063 8148 7079 2840 
1053 2204 9660 2047 1349 1401 4551 7929 9982 
2559 1321 4337 891 6867 1127 9685 3560 4776 
3995 3798 6909 4825 3509 4180 4541 226 1163 
2589 9262 4360 5832 4212 4381 462 6426 3196 
4152 6550 8143 7347 9839 302 5846 4422 8785 
8198 8728 1172 6459 8986 585 5738 4031 7978 
9456 1747 3596 9682 3271 2089 7725 9962 2836 
3425 3472 1074 2060 872 8115 9988 4250 3245 
3847 1511 5690 2335 5381 1993 4687 5467 9399 
3778 7123 9237 6408 8064 252 5572 3614 3996 
3000 3427 7570 6324 6418 9778 7256 3718 5436 
6619 1211 5030 6489 8760 40 9461 7803 4867 
2091 2612 8528 2511 3020 6917 3805 2722 6058 
357 9717 6466 7744 5538 3390 3423 8767 9885 
2259 7836 1658 4016 1395 8430 2445 9994 9665 
1197 7348 9407 7289 2628 9482 9843 5531 8212 
5198 9381 7350 4493 4508 5918 3925 8954 5670 
9785 5092 1827 3050 7397 3072 4611 5360 817 
2747 3284 4636 1462 2184 5018 9803 3538 7775 
7487 4733 5685 3018 8904 3621 6196 5173 3137 
9631 1106 4747 4569 2634 6000 6615 9860 194 
1518 7592 5054 8007 7327 5701 370 7840 3324 
8911 7301 206 3252 8826 7662 9250 8580 4658 
3431 9451 8937 4865 1745 9247 5679 7121 9108 
5229 3756 2094 3812 2653 7419 6154 3806 8111 
4547 498 4704 5342 8820 7955 4676 5469 2338 
8258 710 7582 1460 2057 2326 9569 851 6082 
5093 8806 47 9284 3545 8975 6284 2971 6512 
8652 916 730 1420 1441 2502 7847 6603 2887 
6677 947 6111 9939 3494 6697 6218 7197 7251 
4608 2758 7435 6902 9146 806 8542 9490 5132 
717 8976 8984 2984 7405 3831 476 1421 1044 
1352 7368 1246 1819 6498 4949 5901 2486 7043 
8776 2413 3327 2633 1893 182 436 258 6155 
5170 3697 3198 6640 6854 890 9153 9594 9622 
5778 6294 6006 9201 6086 2860 1402 1940 5087 
4806 977 7001 8267 5489 612 5593 8012 4454 
9953 2647 4216 7299 9331 3950 9396 4766 5600 
7913 2410 1976 6090 13 910 53 8582 4506 
2275 4434 8275 3289 874 3958 9178 9642 9139 
42 4063 7313 8781 6991 223 5962 6952 443 
4390 8195 1918 6521 9636 5568 2723 1797 6796 
3956 9347 6393 5895 1903 6193 7887 3973 3116 
8766 1105 8079 3124 967 4871 1557 2150 6879 
5410 5511 5375 1418 2969 5515 1742 2180 7233 
9177 5044 1078 2448 3193 5373 4265 4053 3772 
7864 1814 4689 7695 8513 2457 3436 2583 8156 
3527 209 3333 5251 8901 97 7321 5403 6192 
6345 6087 2325 9033 1562 4660 5780 6125 7506 
9333 6188 7683 2481 9746 6996 8843 5615 6274 
5872 8814 4022 1192 7418 9168 2138 6153 7064 
1966 1685 2232 3328 8242 4194 9544 4919 7026 
610 2250 6186 3924 2132 1207 6208 8113 7517 
8817 3653 8509 2387 5620 6609 8045 2029 1489 
8861 2605 2205 3063 5473 4863 5220 6482 6074 
5973 6067 3659 3498 8949 1862 1325 9608 4996 
2562 3488 2637 5082 3785 7837 1912 9122 3683 
8436 7480 7863 1204 7098 3543 9753 4842 3641 
5432 6965 9614 1513 1169 2342 7297 4211 5041 
3079 7258 2567 7939 9670 4809 3468 6304 8546 
9864 5067 4046 871 506 1451 5657 2668 3482 
1579 8066 5095 8208 7004 7402 9432 2337 8251 
1520 7125 1989 8356 1935 1743 8385 2594 4114 
4089 7890 32 5078 681 3753 9459 662 2550 
1473 2903 4256 9949 3738 1738 5484 9680 7826 
4706 7916 6501 8538 2068 928 9777 5694 9999 
9224 361 1955 8180 4831 4146 1442 3250 2847 
306 6684 9298 1609 7 7075 8432 2919 7372 
1287 9063 1980 3932 5292 461 6008 7851 1841 
2684 8578 5500 6742 9548 811 5799 9306 6254 
2350 359 6547 1305 240 7815 6623 5809 3208 
9877 7296 499 8751 9050 4638 7196 1642 4369 
9630 4345 9350 6564 3552 1647 7876 4796 7118 
7509 6272 3622 1809 9597 4482 8627 6673 6575 
5961 5818 7839 1228 1548 7953 6305 9646 4690 
1929 5622 1301 248 9906 5341 1288 394 6940 
5366 7493 1095 4553 1153 2133 416 5349 4001 
1034 8895 7467 6561 502 1635 5686 2097 9584 
7012 8125 2018 1459 4121 1336 2617 3177 7532 
4030 5714 7034 3444 1274 1064 2702 5330 3550 
4443 9773 9627 5022 9735 6163 597 9728 7113 
2006 2707 1150 8563 6713 5074 9295 4007 6720 
3429 1486 34 4201 9531 5542 1865 9545 60 
517 1568 7384 553 6343 1212 287 9772 2845 
4805 6772 6431 9047 6908 8122 2422 6520 8641 
1687 4911 4406 1006 1067 8816 9501 7696 2402 
4810 8787 2379 7814 1338 596 7198 9855 3889 
5749 4852 175 4214 2340 699 6327 6306 4099 
9215 7740 5256 1605 5986 178 3147 1362 9987 
4514 2012 9872 2531 1931 4056 4004 859 9175 
9865 8010 7586 9836 8883 6315 4973 7739 4012 
6511 2294 3035 2819 9688 7674 7153 2809 2824 
62 7216 4705 2748 4368 4639 2674 2949 1613 
3053 2235 3185 4186 5571 8182 7620 1292 9883 
1122 2861 8921 6022 8055 7878 5075 8157 1015 
7069 955 3173 2853 7977 211 7273 9587 3216 
3069 460 5885 283 4413 2662 8956 1985 3096 
7421 7523 6336 3865 3939 9276 625 8710 2695 
5446 9198 3335 522 1154 7199 4621 9009 6169 
5338 1948 8665 8451 9959 9290 9845 281 2066 
1070 6316 2689 146 7852 8846 3323 9574 6425 
9555 6723 8460 8536 5133 312 6231 1104 5328 
6228 7746 4073 1100 1145 279 5541 6681 4190 
3669 6469 4799 1139 9859 5841 8946 1256 7128 
6009 1813 565 9978 1293 820 6344 1217 7807 
5703 5249 3517 5858 6932 6015 5365 3782 9997 
877 2443 1704 5390 1214 3525 1490 9758 9157 
2987 3563 8089 4441 8718 7455 5498 4769 671 
1339 5687 7169 5641 4421 9977 8967 9960 4400 
3172 665 7008 2051 2717 4588 8490 2547 3599 
190 9164 5861 4772 4677 8629 8759 4922 7710 
9743 3690 7808 6024 9774 3959 9895 9651 1061 
5083 838 9675 2835 5351 9621 2489 8583 9661 
5632 9246 9765 9815 4604 774 4049 1690 9828 
9116 64 4281 3055 3654 624 8099 6280 6183 
8110 3294 3941 6206 2715 7511 9658 7446 2996 
1258 9581 684 878 2966 3123 9173 6135 9330 
6747 3994 4700 6691 6502 9884 3201 2222 8405 
3433 4592 241 3810 4262 5876 7781 4926 8601 
5055 9937 2484 9954 561 7986 9572 5385 9542 
9756 9232 2013 5583 7260 8964 2978 2349 5454 