# vtk DataFile Version 4.2
Generated by LIGGGHTS
ASCII
DATASET POLYDATA
POINTS 10000 float
-0.0191261 0.000897368 -0.0363844 -0.0184275 0.00358095 -0.0367378 -0.0186513 0.0058545 -0.0366238 
-0.0186237 0.00788601 -0.0366437 -0.0186109 0.0111279 -0.036646 -0.0180145 0.0130566 -0.036945 
-0.0191185 0.0145392 -0.0363866 -0.0179961 0.0163991 -0.0369503 -0.0188201 0.0192027 -0.0365377 
-0.0206976 0.000951702 -0.0355153 -0.019735 0.00255315 -0.0360548 -0.0177054 0.00199206 -0.0362676 
-0.0198473 0.00439761 -0.0359897 -0.0202153 0.00614709 -0.0357856 -0.0214615 0.00722199 -0.0350642 
-0.0199725 0.00811731 -0.0354954 -0.0212032 0.00941499 -0.0352153 -0.0196722 0.00978549 -0.036092 
-0.0180182 0.00956455 -0.0354235 -0.0206983 0.0111419 -0.0355182 -0.0178783 0.01218 -0.0353843 
-0.0195545 0.0125759 -0.0361478 -0.020623 0.0139792 -0.0355575 -0.0207745 0.0158054 -0.0354656 
-0.0189911 0.0160311 -0.0353926 -0.0211925 0.0175498 -0.0352142 -0.0195241 0.0175698 -0.0361656 
-0.0178495 0.017603 -0.0355067 -0.0204024 0.019198 -0.0356841 -0.0222244 0.000895285 -0.0345752 
-0.0191561 0.00107714 -0.0345965 -0.0233108 0.00212848 -0.0338524 -0.0216979 0.00257962 -0.0349115 
-0.0184063 0.00270191 -0.0347749 -0.0228875 0.00384604 -0.0341437 -0.0200898 0.00322859 -0.0344349 
-0.021468 0.00446669 -0.0350535 -0.0192856 0.00482881 -0.0343189 -0.0224391 0.00584945 -0.0344396 
-0.0184015 0.00628674 -0.0348757 -0.0199325 0.00690387 -0.0341722 -0.0225661 0.00862008 -0.0343497 
-0.0184445 0.00805407 -0.0345563 -0.022218 0.0109467 -0.0345864 -0.019043 0.010919 -0.0348532 
-0.0199339 0.0123738 -0.0343065 -0.0230642 0.0129582 -0.0340186 -0.0215875 0.0125889 -0.0349616 
-0.02213 0.0143546 -0.0346413 -0.0180723 0.0139485 -0.0350498 -0.0199719 0.0148801 -0.0341491 
-0.0178519 0.0154722 -0.0341183 -0.0222793 0.0161364 -0.034544 -0.0186268 0.0170894 -0.0339858 
-0.0199184 0.0183168 -0.0342008 -0.0219429 0.0191818 -0.0347504 -0.0182997 0.0192012 -0.0348153 
-0.02438 0.000900465 -0.0330862 -0.0225252 0.000896308 -0.0328071 -0.0207153 0.00151757 -0.0338178 
-0.0184516 0.000898067 -0.0329511 -0.0243759 0.003607 -0.0330899 -0.0217832 0.0028333 -0.0331384 
-0.0204021 0.00393616 -0.0328199 -0.0186105 0.00357677 -0.0332178 -0.0221403 0.00457886 -0.0326894 
-0.0238428 0.00528019 -0.0334828 -0.0208555 0.0054449 -0.033679 -0.0234505 0.00716547 -0.0337559 
-0.0216997 0.00743008 -0.0333085 -0.0184438 0.00692105 -0.0331618 -0.0240858 0.00878109 -0.0333035 
-0.0203869 0.00861966 -0.0338288 -0.0220958 0.00988097 -0.0331548 -0.0185684 0.00962886 -0.0337027 
-0.0237042 0.0105679 -0.0335771 -0.0205099 0.0104076 -0.0338923 -0.0191503 0.0112541 -0.0330925 
-0.02519 0.0114514 -0.0324825 -0.0214752 0.0117355 -0.0331627 -0.0176219 0.0121914 -0.0331121 
-0.0210945 0.013464 -0.0334776 -0.0189019 0.0135946 -0.0334979 -0.0237587 0.0145443 -0.0335446 
-0.0214694 0.0152318 -0.0332155 -0.019136 0.0157987 -0.0328557 -0.0232651 0.0162025 -0.0330523 
-0.0203984 0.0166093 -0.0339004 -0.0243379 0.0176395 -0.0331214 -0.0221083 0.0175485 -0.0334612 
-0.0250365 0.0192065 -0.0326003 -0.0235298 0.019135 -0.0337041 -0.0218425 0.01921 -0.032856 
-0.0182968 0.0187309 -0.0330796 -0.0266928 0.000895712 -0.0312598 -0.0248989 0.000897845 -0.0313621 
-0.0208129 0.000895674 -0.0321393 -0.0255458 0.0023482 -0.0322056 -0.0235943 0.00232872 -0.0320935 
-0.0218755 0.00217804 -0.0314706 -0.0197353 0.00229319 -0.0325328 -0.0181299 0.00242675 -0.031742 
-0.0254198 0.005082 -0.0322959 -0.0237267 0.00475918 -0.0317793 -0.0264229 0.00633443 -0.0314809 
-0.0221426 0.00624832 -0.0320366 -0.0193815 0.00540092 -0.0326172 -0.0176211 0.00557709 -0.0323006 
-0.0243096 0.0065506 -0.0322954 -0.020224 0.00697524 -0.0324029 -0.0256061 0.0077915 -0.0321544 
-0.0230055 0.0078706 -0.0321637 -0.0211227 0.00871475 -0.0322017 -0.0191775 0.00843045 -0.0325155 
-0.0263482 0.00930845 -0.0315477 -0.0246714 0.00981484 -0.0319588 -0.0229273 0.00957427 -0.0315999 
-0.0206614 0.01045 -0.0320996 -0.0181829 0.010165 -0.0320411 -0.022925 0.0112899 -0.032126 
-0.0263882 0.0126736 -0.0315096 -0.0239373 0.0127296 -0.0324747 -0.0199819 0.0126452 -0.0323317 
-0.0182757 0.0133783 -0.0318314 -0.0253336 0.0138482 -0.0323708 -0.0225197 0.0138317 -0.0324537 
-0.0201418 0.0144279 -0.0323018 -0.0263225 0.0151068 -0.0315692 -0.0241601 0.0151415 -0.0319074 
-0.0224034 0.0154437 -0.0316787 -0.0175941 0.0150087 -0.0323817 -0.0254318 0.0164883 -0.0322879 
-0.0206377 0.0160976 -0.0318624 -0.0177036 0.016801 -0.0324489 -0.0263106 0.0178806 -0.0315675 
-0.0229371 0.0174647 -0.0318161 -0.0211714 0.0178103 -0.0319517 -0.0194781 0.0175151 -0.032473 
-0.0233735 0.0192039 -0.0319197 -0.0200589 0.0192033 -0.0326487 -0.0280091 0.00119328 -0.0300799 
-0.0231197 0.000897367 -0.0311145 -0.0212301 0.00089459 -0.0303924 -0.0194758 0.000989695 -0.0309392 
-0.0176793 0.000898488 -0.0309101 -0.0260176 0.0023679 -0.0304797 -0.024225 0.00231743 -0.0304148 
-0.0202536 0.00264995 -0.0308503 -0.0277126 0.00294823 -0.0303526 -0.0250582 0.003727 -0.0311626 
-0.0229153 0.00348372 -0.0308114 -0.0191502 0.00389448 -0.0315322 -0.0267833 0.00423698 -0.0311808 
-0.0211975 0.00413187 -0.0312306 -0.0176568 0.00399464 -0.0305151 -0.0277769 0.00544379 -0.0302905 
-0.0256887 0.00526565 -0.0301931 -0.0223584 0.00530376 -0.0305222 -0.0205454 0.005801 -0.0310823 
-0.0186943 0.00550564 -0.0308595 -0.0244078 0.00651764 -0.0303607 -0.0227137 0.007088 -0.0305602 
-0.0209626 0.00753536 -0.0308665 -0.0189505 0.0072589 -0.031173 -0.0259275 0.007781 -0.0303873 
-0.0242829 0.00821044 -0.0309552 -0.0281225 0.00886762 -0.0299702 -0.0213816 0.00960078 -0.0306677 
-0.0196276 0.0094004 -0.0310689 -0.0276796 0.0105572 -0.0303954 -0.0260421 0.0109842 -0.0309826 
-0.0242899 0.0109106 -0.0305836 -0.0225012 0.0109837 -0.0304053 -0.0213518 0.0119539 -0.0313928 
-0.0192944 0.0113543 -0.0312882 -0.0179342 0.0122186 -0.0305004 -0.0247347 0.0130211 -0.0308882 
-0.0229365 0.0126918 -0.0309849 -0.019594 0.0130869 -0.0306419 -0.0264048 0.013959 -0.0301983 
-0.0232892 0.014391 -0.0305253 -0.0212701 0.0137187 -0.0311028 -0.0199891 0.0148472 -0.0305363 
-0.0279226 0.0149434 -0.0301617 -0.0249731 0.0150351 -0.0303116 -0.0186003 0.0158178 -0.0311404 
-0.0268377 0.0164476 -0.0305027 -0.0235958 0.0161647 -0.0305507 -0.0215253 0.0168853 -0.0304543 
-0.0281473 0.0175433 -0.0299552 -0.0248129 0.0174809 -0.0306261 -0.0197437 0.0176778 -0.030714 
-0.0179574 0.0176749 -0.0309072 -0.027237 0.0192056 -0.0307812 -0.0252616 0.0192051 -0.030824 
-0.0223609 0.0191232 -0.0304441 -0.0206463 0.0192074 -0.0309533 -0.0188815 0.0191676 -0.0312931 
-0.0263102 0.000892372 -0.0295076 -0.024601 0.000990859 -0.0289674 -0.0292419 0.00170847 -0.0288826 
-0.0225469 0.00199455 -0.0298168 -0.0205951 0.00205888 -0.0291858 -0.0186797 0.00234611 -0.0300394 
-0.021585 0.00349408 -0.0296033 -0.0289666 0.00436252 -0.0291605 -0.026872 0.00419309 -0.0293617 
-0.0239809 0.00473127 -0.0300107 -0.0199217 0.00449073 -0.0300232 -0.0283245 0.00708445 -0.0297907 
-0.0266754 0.00651825 -0.0293574 -0.0213874 0.00649908 -0.0294756 -0.019684 0.00758778 -0.0295683 
-0.0182033 0.00657465 -0.0294492 -0.0228344 0.00878709 -0.0299959 -0.0213049 0.00827192 -0.029211 
-0.0181754 0.00864079 -0.0303236 -0.0292684 0.00993197 -0.0288559 -0.0262567 0.0094316 -0.0297637 
-0.0244982 0.00921999 -0.0294861 -0.0200005 0.00951828 -0.0293096 -0.0258224 0.0110837 -0.0292074 
-0.0205617 0.0110683 -0.030054 -0.0179034 0.0104195 -0.0302932 -0.0287506 0.0115701 -0.0293649 
-0.0271089 0.0121975 -0.0299302 -0.0237419 0.0122104 -0.0294548 -0.0284812 0.0133216 -0.0296346 
-0.0254115 0.0128306 -0.0292186 -0.0221198 0.0134354 -0.0295485 -0.0205355 0.0126728 -0.0291741 
-0.0241724 0.0141122 -0.0289861 -0.018434 0.0147062 -0.0292534 -0.0272075 0.0159137 -0.0288308 
-0.0217106 0.0151089 -0.0300595 -0.0289642 0.0161532 -0.0291592 -0.0254534 0.0164435 -0.0293101 
-0.0191579 0.0163246 -0.0295165 -0.0264284 0.0180069 -0.0297194 -0.0229735 0.0175925 -0.0296586 
-0.0286476 0.0192013 -0.0294706 -0.025288 0.0192054 -0.0290322 -0.0234949 0.0192074 -0.0290659 
-0.0211035 0.0192025 -0.0291632 -0.0190196 0.0192059 -0.0295034 -0.027701 0.000897584 -0.0283348 
-0.0259906 0.000899098 -0.0277412 -0.0228884 0.000897176 -0.0284381 -0.0211622 0.000895951 -0.0279401 
-0.0192282 0.000896141 -0.0291319 -0.0174318 0.000905024 -0.0291284 -0.0275686 0.00266845 -0.0285899 
-0.0257657 0.0024016 -0.0287054 -0.0222408 0.00258704 -0.028153 -0.0299317 0.00319129 -0.0281417 
-0.0238607 0.00301682 -0.0288057 -0.0200155 0.00398146 -0.0283089 -0.0185297 0.00297975 -0.0283706 
-0.0300291 0.00490842 -0.0276254 -0.0278959 0.00427027 -0.0277212 -0.0251854 0.00410867 -0.0282617 
-0.0232493 0.00465614 -0.0283783 -0.0214952 0.00495633 -0.0285782 -0.0184207 0.00472496 -0.0290595 
-0.0282192 0.00586767 -0.0284755 -0.0264806 0.00533334 -0.0280248 -0.0247148 0.00576915 -0.0287479 
-0.0197848 0.005904 -0.0289225 -0.0298537 0.00658209 -0.0282532 -0.0246673 0.00756366 -0.0288082 
-0.0230907 0.00651487 -0.0289032 -0.0217804 0.00716274 -0.0278588 -0.0298674 0.00837284 -0.0282089 
-0.0281058 0.00784202 -0.0281815 -0.0263684 0.00810471 -0.028558 -0.0231054 0.00828991 -0.0282978 
-0.0185878 0.00866505 -0.0285781 -0.0220657 0.00986252 -0.028777 -0.0274308 0.0102157 -0.0286625 
-0.024143 0.0107104 -0.0285522 -0.0207735 0.0110102 -0.0282818 -0.0189608 0.0111695 -0.0290532 
-0.0174059 0.0100597 -0.0286091 -0.0244513 0.0123012 -0.0277821 -0.0224839 0.0115589 -0.028348 
-0.0301074 0.0135117 -0.0279877 -0.0285105 0.012691 -0.0279543 -0.0270281 0.0134761 -0.028591 
-0.0229462 0.013255 -0.0279673 -0.018734 0.0129528 -0.0290743 -0.0286645 0.0145719 -0.0283555 
-0.0258096 0.0147925 -0.0287006 -0.0203103 0.014421 -0.0288146 -0.0223859 0.0149015 -0.028407 
-0.0236704 0.0161034 -0.0287624 -0.0208478 0.0162035 -0.028937 -0.0175001 0.0160969 -0.0286222 
-0.0298681 0.017418 -0.0282409 -0.0280869 0.0176078 -0.0281638 -0.0263185 0.0173459 -0.0280232 
-0.0243746 0.0177376 -0.0285421 -0.0216969 0.0176866 -0.0283967 -0.019993 0.017806 -0.028949 
[...]
POINT_DATA 10000
FIELD FieldData 7
id 1 10000 int
990 6029 9530 2616 6920 4665 906 3656 8618 
1382 1244 2955 5721 937 154 4827 4466 4929 
1846 6894 2430 450 2451 242 4803 1120 6444 
384 1516 6658 2243 6528 3606 4698 4486 3410 
3042 4373 2807 7871 245 2811 2788 9769 7080 
2618 9650 334 6103 4485 7993 1440 1453 803 
3638 253 518 6354 9369 5016 9474 4244 2329 
217 8969 1619 2703 3537 9794 861 2746 1624 
7036 2200 4134 4669 354 943 4584 4489 4512 
1071 3298 404 447 6983 6978 2829 4462 1779 
6069 1129 1383 2649 1201 1414 280 4243 514 
5956 3343 73 8223 1576 3952 2373 147 6611 
1958 1533 9120 4751 976 9477 7720 2873 1340 
4800 5534 1487 4380 4577 4128 3663 3301 3902 
4318 1101 4346 1337 692 9081 2063 3254 5380 
2360 7468 1452 6842 9441 3801 4260 1765 3880 
1775 4870 4697 7407 9916 2167 5312 7858 1299 
6130 544 4332 9374 153 3505 8889 2725 9615 
8676 1669 5090 2667 1038 1324 621 9712 1795 
9053 6614 1621 7027 4017 3910 929 1330 6421 
1407 2619 4876 7859 1800 4293 4150 8102 6387 
3723 3130 7102 7033 1973 8961 9942 7100 4920 
3128 523 3647 4693 5441 7070 7317 3857 1434 
4349 7975 4120 4040 3578 405 4448 9930 8226 
2041 1089 331 1677 3696 4379 6844 2248 4499 
6887 2421 4767 4193 3386 4998 804 7243 4874 
2196 5191 1213 5201 3076 9760 9117 6452 7345 
7706 8172 2908 4147 7238 9388 4202 7007 4377 
8030 5998 1970 2609 7025 5371 2933 9300 4721 
1491 4777 1389 7889 6491 3569 3811 6687 3758 
4125 8481 2750 698 2901 2104 9781 227 114 
7519 2914 9409 702 4391 1651 6652 1938 3981 
2154 2688 1079 763 7555 4480 653 6423 3565 
5518 2458 3099 6325 5121 3608 1744 2551 5007 
8860 1963 5438 5285 7629 8525 1267 5317 638 
1080 7497 5433 7868 3783 6566 4820 4235 3961 
8302 1691 6659 3024 3955 6415 432 5261 7681 
5452 1909 4280 9294 177 2801 63 4688 5445 
5540 9393 1753 4086 1871 9489 4554 3261 2607 
4278 6875 2292 1771 4217 8717 3803 1300 3067 
9676 1849 8586 6404 3383 4549 8466 9193 3587 
4787 6056 5867 1081 429 8315 4533 7416 9227 
9755 3451 507 4886 452 5042 4085 1868 7648 
1392 6583 5282 4548 3414 547 9841 5232 1194 
1036 266 2686 3837 3373 5035 2937 3822 1085 
422 6133 7184 1209 5431 1972 2303 7935 6245 
5260 1617 6859 4757 6175 7245 9668 9611 6596 
1059 421 2582 772 1390 2558 45 2906 826 
8456 1774 2534 9076 4028 5643 6168 5680 6815 
9963 9624 5266 2714 6148 3708 1111 768 5311 
294 687 7088 1001 8330 7150 2182 5079 998 
2608 4631 6014 9174 4774 2395 8807 6715 4195 
4375 292 2731 893 8361 1653 4511 2669 5517 
715 1927 322 1686 2493 4649 1202 4904 1136 
1193 5277 1345 773 3673 7749 4205 2990 5320 
769 2312 2131 9221 2339 1048 4307 1561 4037 
10 259 572 8077 5356 9808 449 966 9993 
3215 3438 3470 1363 9341 708 2803 5817 9603 
2361 2476 2697 9678 833 8882 651 5029 8647 
1892 3598 4374 6147 6960 7492 1722 8890 8283 
8659 7761 569 5391 3267 2227 8165 5278 3745 
1770 1248 364 8823 7998 1477 581 1271 6830 
9356 9909 3867 3368 5813 5605 5499 5344 4983 
7312 2245 4255 2085 8948 9904 5844 278 5061 
8118 2290 3355 3036 1649 1666 4579 4784 2755 
5702 968 694 2394 5224 887 1784 219 149 
4268 2716 3541 3962 617 7155 939 9940 3385 
3207 1043 4456 2648 1625 7606 1773 607 4174 
1904 215 3396 3249 3559 9512 7448 6857 8822 
8038 9045 4724 3181 3814 5039 2632 2506 2930 
5211 6998 2888 3453 6569 1108 9041 7923 4925 
5056 7257 2026 8244 9744 9268 4289 8132 1295 
558 7473 2411 8658 5259 7315 682 535 7981 
1821 9301 1125 5372 5764 9679 1505 3516 645 
9518 8033 5376 411 2308 5015 6131 3780 5754 
2509 3156 2743 2962 3976 3388 853 8620 2286 
9887 7145 5634 6364 7751 4008 7400 9305 5736 
2062 2915 6232 4225 5599 545 6380 7195 3790 
791 4019 4181 6939 89 4877 4025 7778 9592 
2851 6081 4142 6684 7463 485 3957 4682 8523 
4899 7729 3818 1614 7076 3631 3477 1176 3722 
5392 4282 4597 5294 2676 3933 4155 1348 5818 
8917 7836 8070 2162 2284 3888 2792 4836 6881 
3839 1065 9876 6742 1641 4667 7823 9861 2918 
6027 4738 2183 1526 752 249 3112 7010 1683 
945 5752 4801 3616 4390 9223 4657 7221 5151 
6841 3293 4642 9418 3342 9738 2848 8425 6156 
4978 703 3571 986 2610 6620 3664 2438 9936 
9784 7604 6241 8237 8278 4570 6183 885 1260 
3495 1317 7918 7453 6942 7201 6261 3075 8318 
1767 4829 4626 9893 433 2883 1896 40 6789 
3307 1706 8743 599 5368 299 5836 1347 5582 
1010 9462 1041 867 6080 5491 8035 8992 1428 
2434 352 4608 3670 3266 8970 4018 4612 9433 
2974 2479 1887 4410 9327 2306 5552 1222 4458 
4284 1 8051 1854 9349 5222 9495 967 314 
7461 7753 4931 18 5213 4360 6375 4605 7603 
8698 9407 7787 8549 8746 273 5031 6408 7074 
8362 3796 3288 8585 3711 5144 2410 8222 4394 
5504 3106 3059 7069 1745 8448 128 7565 1639 
5709 5314 3812 2654 7929 8341 8654 1130 762 
1952 1845 3057 1054 9095 130 6968 4686 2102 
3773 5615 2087 3399 4149 1027 852 2307 7679 
9413 1739 1445 4381 4392 205 8790 6898 8119 
2647 2772 9536 4460 8198 9682 174 3786 2238 
4101 9108 3685 8355 3244 5059 766 8419 5896 
6765 8175 4520 5862 498 551 9244 5974 2976 
6 6492 9613 3153 2379 2090 6389 2456 792 
4760 8859 347 7503 1495 7644 4575 8955 7911 
1028 1096 6795 7383 4198 3785 7687 111 9533 
8925 3924 5843 5339 4530 1750 4630 7079 7378 
2840 5167 9540 9684 9438 3890 3995 1053 7759 
3142 6045 2532 4551 2589 9924 8313 5766 6770 
9996 1232 5653 537 5606 745 2730 2071 9184 
3798 7109 5510 3499 4473 749 9807 497 7209 
8785 6467 5711 2757 4537 777 3243 1833 7978 
1172 9158 9811 8705 5921 9813 1163 9211 161 
8334 6653 8321 6480 7792 3425 2862 2226 884 
897 5267 805 3615 7732 1098 1514 5467 1670 
2694 3778 1484 5112 6185 6224 1592 3938 4104 
7333 1668 3733 2809 3000 6570 7689 1366 8008 
675 4428 7772 9140 3008 6523 839 5751 4263 
9587 4239 118 4924 2100 7422 9785 6466 6406 
7457 1307 2921 7340 6867 2091 3845 9411 4918 
1401 5009 9839 5802 509 1349 8212 8417 2255 
3273 8791 8154 2925 4727 5414 4500 4644 9262 
4637 3233 479 5248 1872 7539 2184 7016 8017 
1177 401 6865 9790 2163 3497 9456 5868 2984 
9182 2513 8695 1590 1358 6623 9 2631 8014 
8923 922 5733 524 9779 5690 8115 872 7284 
6000 3318 9190 2723 3427 4139 2218 4833 3871 
3614 1237 2172 3996 5823 3567 1664 5135 4680 
7041 5679 201 6275 6976 7038 8396 4867 612 
6695 9355 412 3027 6917 8399 4305 2230 8501 
7916 7744 9660 5538 4547 8401 1156 47 9461 
3138 5341 8124 226 1197 6066 2073 6427 3900 
5853 1551 891 9843 4906 8995 4966 9860 2842 
462 8143 8256 8837 1310 396 3522 5040 3869 
779 7347 6218 5000 3489 8831 4031 8728 1482 
881 6730 6288 1055 1462 1747 3975 7353 8418 
3576 2634 6196 3594 1735 8440 4711 6615 1352 
7487 7527 6229 2659 5944 3859 5459 1261 1127 
4001 1941 8173 6326 9308 54 7840 1498 7061 
7658 7670 9015 8210 6006 740 4333 6619 8411 
6049 6063 6086 8085 7813 3806 7803 2653 9145 
9103 5792 9754 9745 8767 1412 8809 2936 2605 
5703 2503 9284 4676 2057 8909 6579 1600 4776 
6426 8898 6295 7066 4651 4212 503 5253 6665 
4081 3344 9429 5 8430 3072 8954 7194 3897 
8322 7185 947 908 6382 7758 7397 806 4611 
9939 7405 2815 1278 5763 5820 7701 2150 6099 
6758 5580 8670 5148 160 4069 312 2836 2486 
1742 7954 5789 3205 1044 3324 3621 3426 8904 
3831 2025 7205 4726 4909 4873 3815 8911 182 
9237 7592 2408 7083 4563 431 2533 8580 3198 
7570 4090 9399 1717 5200 1082 4157 1640 3718 
9247 2094 2042 4438 3154 9513 1103 7256 5937 
4766 6986 2964 3899 2343 7783 5687 5469 5600 
6087 5125 2471 9381 3121 7853 3916 5355 8628 
5531 9885 2259 3700 8880 2007 4722 1603 7582 
5923 3184 8309 930 3689 2397 4434 5670 8775 
9482 5360 2234 6884 1419 4083 6269 9636 8840 
1835 100 1502 570 7019 7725 2145 9665 4417 
8497 4234 8496 6550 9146 9347 8542 6905 7622 
2291 4494 9490 3302 4618 4138 5798 1518 1105 
2973 6259 4226 9250 3701 7459 8259 601 3389 
869 4687 1893 9988 5054 6864 3051 6311 4658 
8156 2583 7123 6801 7039 2891 5700 7955 844 
7478 2518 9554 5562 3020 7196 2325 7121 9463 
3520 7358 6632 8148 3805 9970 3585 2326 9396 
9953 4103 9699 3819 8053 5401 1940 2445 9994 
8390 7617 7162 4745 8652 3925 3545 5198 6603 
9594 3194 7442 7176 5950 6237 166 8260 3577 
302 1648 8454 5384 3209 5017 6422 71 2078 
2628 3596 5890 2029 2833 1235 5685 6902 9419 
4236 4985 6521 1912 9058 2187 3189 6879 6482 
120 9020 3126 2637 7043 8949 2881 5738 4949 
7882 8982 7428 6891 670 3645 194 7301 6638 
6913 7659 6113 5233 5701 2633 2056 4930 8271 
5796 8951 1362 8111 5403 6192 5436 6345 2860 
5066 4366 2128 8443 2161 300 3484 7741 5337 
2849 8760 8814 5723 656 3784 8479 3756 4454 
1451 8528 2929 2047 8843 3187 53 8656 8591 
8402 8742 3423 7261 5062 2784 9167 4614 4683 
5832 3390 916 8275 4893 2346 8326 138 3248 
42 5484 6111 1355 7524 7847 585 2651 6922 
4989 2593 7251 4946 5596 8107 9971 5901 3018 
8766 8432 1160 4768 3041 577 3538 4636 5044 
7075 7451 5505 8724 4339 5361 4252 3327 3488 
9338 4100 9686 3265 6251 8007 2480 9130 8900 
1993 209 436 2988 3907 3391 741 7247 5170 
8826 6640 3333 1807 1444 4908 5284 659 6532 
1211 4809 6853 1997 141 8937 5593 2612 8480 
567 7224 9368 5070 4337 5612 7913 7314 7788 
9821 5345 7348 6621 7308 4427 13 4585 3572 
9569 9541 2352 7817 4522 3560 9717 7350 4259 
2015 3050 4541 223 3250 6607 1984 2074 6677 
4363 8218 3104 1644 4571 3116 5895 3124 8079 
5155 3752 6393 3498 1862 4586 7288 8515 3083 
2825 3110 2945 7775 5511 5210 2425 5811 5215 
6688 5863 3107 681 5515 1078 9306 8048 8265 
5585 9962 1511 6254 2180 4753 5395 7023 2089 
8436 6324 8467 5398 8170 4635 5381 903 6979 
4939 8068 8488 8353 5256 8502 7327 7296 7297 
4211 6513 3115 4993 9783 1402 7506 6564 1864 
5717 1832 9543 5876 2204 6996 506 6304 3879 
5032 7992 474 5489 4558 3482 8066 8472 9331 
713 1705 8551 3084 3223 5342 6909 8789 8482 
6606 2715 1321 8820 7299 2650 902 7821 6248 
3539 3501 2275 3328 5622 3969 4580 7013 8915 
9982 9139 1489 4902 874 6574 5271 2683 9735 
1738 7368 2086 1356 9172 2785 8803 8984 7197 
2702 9674 1873 7129 1903 4523 2375 6843 4422 
4747 4689 2116 5545 6108 934 2627 3137 8633 
9391 3847 3193 5410 4032 7728 3632 2060 8888 
7742 8491 1772 1675 9153 2440 9151 2174 8741 
6300 9201 7001 3468 8089 379 2300 6856 6137 
977 6294 7419 3504 8052 7653 9296 6599 8267 
5657 4345 2621 6456 1996 2140 5985 6272 7344 
6291 2880 6339 4862 5803 6516 7329 1989 5740 
4483 9436 5093 910 3494 3740 1529 909 6671 
1926 2422 1024 2830 1726 3166 9801 817 5758 
837 5412 3659 7289 2687 6074 1357 6143 9191 
4795 3214 4863 6535 1203 9287 4627 7906 8622 
8976 3284 4443 1274 5947 3980 6776 7995 5419 
3163 5373 3202 6297 6139 4977 629 4161 8763 
1421 370 3245 7 402 7183 4853 608 4707 
786 5941 252 1169 7864 7851 1305 2038 4415 
125 1268 3258 2770 3252 7662 3527 5432 1246 
890 923 2920 6496 7554 3840 7321 9670 4796 
2522 8435 8316 319 9430 8272 4036 6464 8012 
3788 8941 5578 6153 2337 9033 6307 3445 1141 
9985 26 859 6219 9350 7875 4331 458 4129 
5770 3950 2972 7956 1385 4508 1460 7026 9230 
6341 5588 8133 3367 4089 3289 6327 7768 1743 
8187 8317 1827 9351 5019 7962 4743 975 8513 
5473 6657 6184 393 9067 3063 1064 8339 3586 
1198 8041 3956 4152 3973 9929 2505 2794 3683 
8847 3884 580 5476 6019 4996 4842 6128 4728 
8798 3772 2448 6343 5074 9122 3581 7311 5572 
1243 9531 8600 4183 845 7848 8303 9810 2393 
4218 3697 8751 6961 6932 2487 4865 1642 6125 
7977 3046 4469 3417 8378 3408 4367 8325 9097 
2080 9451 9589 4267 9070 1062 7403 6636 9333 
6090 6186 5331 7499 1259 2598 9269 3769 6631 
6472 710 2250 416 5962 895 1115 3662 4180 
9642 6302 5568 8113 6940 3970 938 8196 6225 
7435 8538 5138 2431 5663 500 3509 5918 5220 
2012 16 6924 8010 3161 9803 8045 9175 7754 
6195 1311 1074 7467 1145 5292 6735 6008 6215 
3883 10000 4923 3471 4647 5092 1980 5587 8220 
5315 1458 9704 3429 2006 2350 9526 6036 2017 
6150 5799 811 8403 6016 9054 4540 1814 6498 
1486 6965 240 6198 5523 8036 1334 2342 6774 
6848 1942 420 7458 6953 5681 2559 871 6772 
6202 2098 6543 2690 7263 1936 6154 6188 4660 
3242 8117 7489 8042 277 4022 1579 8264 8208 
8611 5005 9068 4623 5095 1804 8413 4159 357 
1228 4194 4406 7727 9309 1056 3218 3570 4881 
1301 7410 8730 4531 2000 9008 234 7890 4782 
7502 9340 9938 4063 1685 9872 6208 7313 4942 
3624 4681 7037 5132 8509 1459 9999 9357 8594 
2129 4199 7484 6609 4973 2684 5231 366 5576 
5027 2018 1539 7642 5358 2260 734 9979 4544 
5869 4880 3271 2562 4121 7692 1859 9900 735 
38 5846 8563 6713 6892 9360 48 487 1106 
348 9950 2629 5609 3852 8575 7762 3436 499 
553 2143 6220 5635 340 5893 371 5841 1272 
5641 3551 6855 1289 7018 4079 9797 6058 6489 
5780 7509 3725 3622 4641 3562 4265 1922 4837 
9106 2126 7800 9031 8258 3216 9168 8024 2780 
8554 6212 5961 6336 5669 5715 1622 1021 9486 
1918 1395 2903 3889 7418 8344 1281 863 8346 
8806 8242 5694 5668 8891 1503 3398 928 4099 
5078 3668 6435 6643 4812 2133 6952 7982 1146 
1841 1312 5330 7374 231 4569 3472 2734 7674 
8734 391 8649 29 5554 3653 7887 2439 1325 
9354 6443 325 6854 9680 4831 5375 5082 5239 
8054 899 1184 5018 2707 8702 6388 476 4201 
7966 2497 1751 4759 9709 7878 7098 5041 207 
258 5887 3591 1730 6337 1798 5778 97 8641 
6824 2185 5159 7685 2708 4556 9778 4911 7004 
7809 1564 7496 324 1520 7953 5761 2470 2909 
3230 9706 610 4430 8356 4306 9737 6082 6673 
9428 9695 1880 1523 7696 246 5959 4950 7377 
3558 6174 1929 178 5338 1528 2846 3168 6991 
5014 8312 7883 2205 2847 7517 6308 9417 4464 
9635 4173 2068 8861 7739 7165 1815 2774 6666 
2635 4506 3932 3035 5973 2919 6407 8761 9063 
7163 2301 5305 7303 49 9926 2072 6997 7384 
2967 8893 76 4254 4053 6469 7863 6832 5130 
6155 1513 5571 3634 7612 1265 9918 3378 9420 
1264 5251 9050 6015 2223 2330 7731 2314 1121 
5748 6700 4976 3006 3657 37 533 400 6597 
5319 2727 6331 8276 3873 5938 9422 6982 6458 
2117 5101 9257 6918 8191 1628 7316 3312 6524 
9891 6037 1238 4662 9992 9424 618 5194 8129 
8930 409 4124 7530 9560 1652 4361 3317 6805 
593 3002 8213 3500 9049 2499 56 9849 3695 
9260 4479 6321 4055 5237 8768 5254 4106 6330 
3003 8560 5732 3443 2272 1166 7213 5478 1183 
3671 3736 2524 4857 3526 1834 1313 326 7364 
4335 311 7355 4560 6825 8896 5114 4108 6557 
268 6211 974 1937 3989 9796 3105 378 3430 
8314 5343 8602 3898 2462 2155 5451 5437 1623 
8959 1223 6348 6743 7518 3965 419 4287 9181 
9313 3069 969 9394 7002 5207 2407 8835 4806 
1548 4808 2219 2148 5150 8381 9177 4016 2662 
9503 8885 298 7841 3464 5001 7064 7118 6089 
8645 8943 6948 2550 4114 6274 6575 522 9361 
5860 9101 3977 7198 730 3958 9344 8682 6773 
6720 1966 3738 3172 32 275 5898 9868 1806 
7904 2887 4718 3690 7200 9928 9019 9004 1214 
8460 1207 9777 306 4606 4277 7192 1442 9648 
1398 9845 7532 7000 588 9865 3345 4982 7559 
6488 2602 1715 2758 2748 5714 4871 3372 3703 
1178 1557 9773 8736 8630 6366 441 2413 1212 
2530 4638 7611 1752 228 761 4712 717 3855 
3079 5365 7258 4562 8280 8134 4369 648 6585 
4805 9630 6135 1704 8956 8569 5972 4325 1663 
2110 6073 2511 9213 3201 9292 3877 9226 1935 
1339 596 9499 5981 3304 1687 4270 9609 8918 
7705 9750 9432 9501 2402 4673 9009 8516 8519 
3549 188 662 4514 3147 4706 8793 281 9412 
4704 8627 4677 5366 8753 6178 1288 1473 4256 
3959 502 8638 4295 3177 1418 8251 2280 2121 
6149 5595 8975 8895 3401 5133 1481 6478 8293 
7838 2617 1766 9669 605 6084 3225 2132 7034 
3444 5632 8994 3603 2674 751 624 8894 7545 
7837 3543 2457 1256 7936 7652 5172 2427 5874 
8696 7695 1293 527 9030 5336 6315 9753 5809 
4292 2033 6981 2463 2460 9622 8901 2443 1490 
6494 8039 7077 1006 1879 455 7065 1069 5614 
5390 2668 6851 8370 5448 6277 2338 8710 9884 
2514 3983 6527 7537 5446 9496 4171 8721 7125 
7876 1154 4852 4798 8357 894 9959 4400 8868 
9224 5746 8194 2127 7172 2349 5349 2381 1680 
2502 3475 5651 3103 9434 3203 6534 7381 8125 
1034 6425 5508 5934 6712 5677 7227 1150 3760 
1070 1318 3649 4684 9471 4493 8883 4832 3582 
5992 7666 2747 9605 8180 4799 1217 5487 4389 
6262 5650 4705 820 4049 6933 6160 1572 22 
7128 4186 5490 8683 4749 5166 8055 60 8157 
2861 271 4619 2696 2853 2845 4441 5175 7630 
8540 5759 6888 3986 3810 5589 4986 1890 7521 
5407 327 7746 460 3984 1601 8335 5229 699 
2281 6705 4457 3492 1710 583 9086 2594 6094 
4322 7558 1876 1255 3802 671 1374 3300 9129 
5514 6041 6487 6316 8759 5930 2623 2526 4418 
1153 466 5269 5033 5608 9159 1931 6733 2351 
5744 7485 7012 913 7852 1336 3113 5154 7671 
5287 959 4779 597 461 2835 542 1960 2450 
2819 4368 6314 2318 6032 7244 7480 7233 1813 
2548 5902 3022 8752 6067 9688 5328 3669 5971 
7067 759 1707 3185 4634 989 836 3633 1589 
3641 3208 7113 9877 5075 2225 8241 5003 2927 
8310 7365 3525 8613 5549 6630 9135 5676 5301 
9772 566 4528 4624 5214 6787 2359 8431 4304 
3563 5977 220 691 8164 1562 9275 248 2614 
5767 4046 5583 2695 4214 5951 8920 5153 5816 
2170 6904 7777 9949 9062 381 8300 3196 4553 
2978 4056 4004 5881 8716 2699 991 6771 1605 
9675 3040 2666 2322 4321 9941 2655 4208 1107 
4084 1087 6227 349 8494 2334 2675 2574 2698 
41 7216 6284 9298 1645 9293 1415 6966 5340 
5236 9728 176 5806 9504 2123 562 9658 9902 
279 244 3568 1370 1420 4845 4907 8145 2389 
7605 2751 9774 34 1865 4823 8025 6555 4455 
846 1100 1204 8182 359 6447 9162 5698 6822 
3702 7832 2689 6418 8816 9353 8863 1580 4092 
6691 1322 283 8095 955 8122 9833 4370 7825 
951 7676 1532 1574 2541 2051 2677 1882 5749 
2013 5421 1990 6560 654 7326 7839 665 3199 
7177 798 5189 7199 1727 3629 3303 697 2380 
7780 2216 5707 9855 4922 9651 1221 9126 2922 
1252 8582 6231 1971 1857 778 6180 1609 7756 
1635 3013 6228 6927 2763 9400 157 6796 9661 
6060 8533 2709 8200 7274 1102 1690 2467 6582 
2124 3452 6723 8578 4030 1394 1881 7634 3580 
8195 9555 5257 3533 5541 650 4078 2335 7372 
3550 2592 7190 200 7094 2289 206 9883 4315 
3394 2388 3914 684 517 4414 6837 8123 6273 
4482 4164 4965 5563 5513 139 609 1840 7826 
7423 9330 9047 6993 1049 2220 5617 7008 6257 
4764 7523 1377 4716 3870 3838 6240 443 6547 
8490 3599 3865 6416 3437 1430 8821 2003 9756 
4844 5997 5542 5067 9290 5686 1468 5706 321 
655 7750 162 3032 257 6869 1955 9895 1748 
9141 5989 2221 4792 6816 1981 1954 1181 7082 
5584 6459 4596 1613 7204 9402 9373 2948 6679 
1134 1994 5857 4229 2996 7385 3393 3609 1140 
1360 6097 2235 6009 7328 3895 1569 5953 1287 
1292 1122 9581 3654 1708 6988 905 1734 2138 
1338 3173 3007 5970 1206 5570 189 5771 8469 
9094 1647 5885 3705 2565 3313 2141 7669 9295 
2547 8795 8601 5741 6305 2222 2719 889 7958 
7421 4262 4421 8281 3435 2720 8598 642 1658 
9719 2366 5152 3853 4276 5795 4576 1061 2399 
4625 3190 9608 3335 7601 1969 714 3915 1497 
2768 4696 2899 1602 8833 9788 4748 5648 1063 
1104 2097 439 4652 1933 1797 2058 5080 1607 
5470 2383 2009 2136 3188 8629 7815 6344 3294 
4082 5943 2721 3093 4991 184 4029 4740 3213 
9978 2931 2864 3948 8612 5026 3055 7446 3306 
8056 700 8986 6809 9173 3517 7572 1015 1671 
5550 816 108 5310 9079 211 241 3552 1277 
5498 3481 6216 473 2575 5866 4116 5322 6203 
946 8005 1985 1809 483 4709 6460 7781 2309 
6355 459 6169 7389 2484 9164 5454 2323 4926 
625 7740 9502 5968 1466 1341 4146 2240 9743 
1948 1124 3503 3693 6096 6179 4919 3519 2832 
2193 8845 6306 62 9263 2889 1983 344 6561 
6193 5647 4474 1776 7790 7997 5450 774 2824 
3639 1982 9619 3625 635 101 5202 8110 1335 
2762 1568 2710 6919 1139 1944 9455 1483 3694 
7402 4007 7411 216 7188 387 9673 8921 9548 
1945 1501 6122 1113 6256 2892 394 9663 2969 
6834 9997 4900 4231 2622 2761 9285 8405 4700 
4615 9920 4281 1976 3431 838 1701 3433 7736 
9903 6031 6971 4481 8787 9705 9567 1573 9980 
9646 1472 849 7973 1091 2938 3329 9898 1067 
2459 4228 2023 554 4723 9232 9178 9215 7710 
7394 2798 8211 9823 7602 175 4856 437 2678 
146 3062 341 2971 6194 9662 9335 5083 1457 
3795 4279 8939 4012 1030 6079 3554 830 4216 
6163 4210 1597 661 1678 1593 8913 9118 1269 
4033 1531 9520 64 712 4578 2233 2556 8026 
8946 8087 1391 3612 1294 74 3507 9028 7807 
9984 9947 8064 5858 4118 4802 8852 9389 1837 
5986 5030 9689 8029 8297 2869 4769 904 6529 
3257 4396 8385 9864 4810 7743 5333 7483 8967 
668 4564 6731 7268 9578 4772 5965 9157 451 
9851 2066 1762 7822 5819 1485 8846 9229 9698 
193 3944 3704 5346 4933 316 851 5168 9639 
8536 8829 424 2075 6512 2949 2436 4825 4967 
1537 907 1441 9859 6047 9171 9656 7415 5620 
5889 6022 7511 4475 3274 841 9716 2387 6697 
5249 129 7035 3782 4052 1369 1192 2793 7273 
6747 490 877 2207 6760 6501 3540 9944 2112 
9758 7376 5976 9629 4690 9052 3553 7146 1158 
7169 8590 2232 7655 2717 8158 3395 8718 5413 
4250 9621 1179 260 2294 9195 3305 561 8974 
3016 6024 8034 5774 9575 9620 4420 79 3515 