# vtk DataFile Version 4.2
Generated by LIGGGHTS
ASCII
DATASET POLYDATA
POINTS 10000 float
-0.018281 0.000890344 -0.0368208 -0.0188747 0.00354084 -0.0365142 -0.0178327 0.00773468 -0.0370302 
-0.0180433 0.0105004 -0.0369351 -0.018606 0.0177961 -0.0366552 -0.0198716 0.000904391 -0.0359851 
-0.0204598 0.00256628 -0.0356438 -0.0185904 0.00207507 -0.0355127 -0.0210575 0.00519938 -0.0352942 
-0.0191593 0.00531413 -0.0363586 -0.0210616 0.0070002 -0.0352979 -0.0194502 0.00747291 -0.0362165 
-0.0181147 0.00650591 -0.0354849 -0.0210379 0.00879445 -0.0353084 -0.0191818 0.00924316 -0.0363486 
-0.0203746 0.0104164 -0.0356937 -0.0176592 0.0111587 -0.0353167 -0.021273 0.0118796 -0.0351716 
-0.0191656 0.0117822 -0.0363567 -0.020171 0.0131918 -0.0358098 -0.0184422 0.0135136 -0.0362207 
-0.0210711 0.0146936 -0.0352905 -0.019529 0.0149356 -0.0361734 -0.0198547 0.0166892 -0.0359893 
-0.0181201 0.0161422 -0.0361666 -0.0202074 0.0191952 -0.0357912 -0.0184198 0.0192072 -0.0355674 
-0.0213717 0.000903681 -0.0350068 -0.0197576 0.000895556 -0.0341979 -0.0228281 0.00227149 -0.0341803 
-0.0209454 0.00228449 -0.033935 -0.0219106 0.00369649 -0.034776 -0.0183596 0.00321632 -0.0341506 
-0.0196957 0.00406057 -0.0350047 -0.0181893 0.00495735 -0.0345736 -0.0227254 0.00553653 -0.0342467 
-0.0194763 0.0071497 -0.0344603 -0.0225361 0.00845635 -0.0343762 -0.017583 0.00847161 -0.0340827 
-0.0203524 0.00981707 -0.033998 -0.0186878 0.00981093 -0.0347151 -0.0219498 0.0102543 -0.0347465 
-0.0226474 0.0117734 -0.0340264 -0.0198094 0.0115183 -0.0341992 -0.0221178 0.0133773 -0.0346472 
-0.0184784 0.0126187 -0.0346763 -0.0192998 0.014207 -0.0345518 -0.0224937 0.0153246 -0.0344021 
-0.0200231 0.0158412 -0.0343857 -0.0182291 0.0158417 -0.0343793 -0.0214298 0.0167212 -0.0350735 
-0.0226255 0.017829 -0.0343136 -0.0200094 0.0178401 -0.0346288 -0.0181677 0.0175489 -0.0349272 
-0.0214777 0.0191995 -0.0345103 -0.0238218 0.000927179 -0.0335046 -0.0220352 0.00089427 -0.0333442 
-0.0179966 0.000893044 -0.0338598 -0.023714 0.00386609 -0.0335726 -0.0250654 0.00450143 -0.0325729 
-0.0213956 0.0046967 -0.0333724 -0.0236973 0.00566573 -0.0326351 -0.0198779 0.00548443 -0.0339289 
-0.0184709 0.00529115 -0.0328375 -0.0235367 0.00709582 -0.0336987 -0.0213325 0.0064823 -0.0336029 
-0.0178951 0.00673843 -0.0337222 -0.0251306 0.00812782 -0.0325226 -0.0234474 0.00867504 -0.0328511 
-0.0210169 0.00824421 -0.0334357 -0.0192297 0.00855631 -0.0333797 -0.0251044 0.00998277 -0.0325484 
-0.017889 0.00971785 -0.0328308 -0.0235682 0.0102718 -0.0336686 -0.0212131 0.0111689 -0.033131 
-0.0242368 0.011888 -0.0332053 -0.0178845 0.0113588 -0.0335496 -0.0238196 0.0136058 -0.0335062 
-0.0220515 0.0131186 -0.0328771 -0.020519 0.0131195 -0.0338064 -0.0189974 0.0126403 -0.0329645 
-0.021109 0.0147704 -0.0334011 -0.0194389 0.0145025 -0.0327867 -0.0230878 0.0150445 -0.032734 
-0.023769 0.0165019 -0.0335324 -0.022011 0.0165321 -0.0331666 -0.0247805 0.0179637 -0.0327963 
-0.0208538 0.0178928 -0.0330517 -0.0189373 0.0173299 -0.0332779 -0.0235864 0.0192014 -0.0336585 
-0.0191028 0.0192086 -0.0339159 -0.0254611 0.000901603 -0.0322656 -0.0237471 0.000892601 -0.0317215 
-0.0220735 0.00155087 -0.0316742 -0.0204409 0.00116288 -0.0325591 -0.0186196 0.000951613 -0.0321799 
-0.0251754 0.00266329 -0.0324916 -0.023388 0.00246963 -0.0324892 -0.0263217 0.00369553 -0.031573 
-0.0217119 0.00313209 -0.0325444 -0.0190888 0.00283678 -0.0325588 -0.0176344 0.00383885 -0.0322158 
-0.0231255 0.004139 -0.0318964 -0.0216697 0.00516397 -0.0316566 -0.0199534 0.00440261 -0.0323376 
-0.0266209 0.00548784 -0.0313261 -0.0253495 0.00632757 -0.0323482 -0.0266802 0.00727413 -0.0312689 
-0.0223512 0.00675015 -0.0321523 -0.0207888 0.00754905 -0.0317565 -0.0194889 0.00676365 -0.0327074 
-0.0178601 0.00793928 -0.032389 -0.0263881 0.00906316 -0.0315094 -0.0219234 0.00959654 -0.0326225 
-0.0202216 0.00933963 -0.032115 -0.0265517 0.0110113 -0.0313787 -0.023442 0.0101583 -0.0318445 
-0.0190316 0.0109921 -0.0322181 -0.0246665 0.0114264 -0.031534 -0.0229556 0.0118816 -0.0319436 
-0.0259621 0.0126455 -0.0318636 -0.024233 0.0131442 -0.0318268 -0.0255935 0.0144207 -0.0321616 
-0.0208492 0.013939 -0.0318296 -0.0177015 0.0138745 -0.0327982 -0.0216913 0.0155201 -0.0317203 
-0.0182332 0.015827 -0.0325849 -0.0251855 0.0161644 -0.0324819 -0.0232858 0.0164204 -0.0316003 
-0.0203062 0.0161954 -0.0326471 -0.0261632 0.0174514 -0.0317027 -0.022989 0.0179121 -0.0325558 
-0.0216998 0.0173007 -0.0314607 -0.0199231 0.0175664 -0.0315514 -0.0176486 0.0174974 -0.0320326 
-0.0258054 0.0192016 -0.0319894 -0.0239746 0.0192036 -0.0317827 -0.0217782 0.019207 -0.032262 
-0.0198218 0.0192017 -0.032279 -0.0180313 0.0192007 -0.0324688 -0.0268363 0.00110665 -0.0311276 
-0.0248404 0.000914959 -0.0303018 -0.0207545 0.000902824 -0.0306364 -0.018982 0.00109859 -0.0304328 
-0.0258392 0.00241638 -0.0304029 -0.02044 0.00254376 -0.031414 -0.0275559 0.00295613 -0.030493 
-0.0242855 0.00310732 -0.0309905 -0.0225187 0.00297518 -0.0306763 -0.018799 0.00292125 -0.0307896 
-0.0250549 0.00478956 -0.030791 -0.0205525 0.00416938 -0.0306543 -0.0186768 0.00480815 -0.0311279 
-0.027867 0.00613441 -0.0302131 -0.0235903 0.00624042 -0.0309346 -0.0200888 0.00591814 -0.0312359 
-0.0249787 0.00736229 -0.0307168 -0.0219062 0.00705738 -0.0304416 -0.0179325 0.00646454 -0.0313655 
-0.0280865 0.00791461 -0.0300137 -0.0232352 0.00799174 -0.0312049 -0.0216778 0.008826 -0.0308642 
-0.0191546 0.00796981 -0.0311385 -0.0174386 0.00821893 -0.0306655 -0.0258151 0.0100203 -0.0300765 
-0.0246436 0.00908638 -0.0310665 -0.0200831 0.00957286 -0.0303439 -0.018473 0.00963345 -0.0311362 
-0.0277587 0.0102204 -0.0303124 -0.0221867 0.0105309 -0.030619 -0.020649 0.0109448 -0.0314414 
-0.019181 0.0111242 -0.0304226 -0.0275258 0.0122568 -0.030519 -0.0256586 0.0119524 -0.0301401 
-0.0236776 0.0123206 -0.030335 -0.0218557 0.0122998 -0.0305825 -0.0249011 0.0136282 -0.0302217 
-0.0201099 0.0125764 -0.0309268 -0.0183956 0.0129388 -0.0313069 -0.0269695 0.0142195 -0.0310261 
-0.0240846 0.0148403 -0.03126 -0.0226267 0.0137545 -0.0313056 -0.0197301 0.0142827 -0.030471 
-0.0181358 0.0147093 -0.0311788 -0.0256863 0.0152563 -0.0303149 -0.0203907 0.0159641 -0.0305721 
-0.0275536 0.0164032 -0.0304955 -0.0186975 0.0164017 -0.0309496 -0.0273826 0.0182466 -0.0306513 
-0.0244961 0.0176297 -0.0310577 -0.0255268 0.0188617 -0.030244 -0.0225782 0.019204 -0.0306566 
-0.0207841 0.0192023 -0.0307641 -0.0188091 0.0191707 -0.030798 -0.0283161 0.00148593 -0.0297909 
-0.0266608 0.000903021 -0.0293506 -0.0229886 0.00102447 -0.0301081 -0.0236793 0.00251681 -0.0293875 
-0.0210764 0.00247161 -0.0297416 -0.0178286 0.00253423 -0.0293302 -0.0291092 0.00300467 -0.0290224 
-0.0250033 0.00372399 -0.0293401 -0.0221751 0.00376755 -0.0290955 -0.0283577 0.00446168 -0.0297539 
-0.0265722 0.00435717 -0.0299324 -0.023387 0.00455446 -0.0301691 -0.0201454 0.0052174 -0.0292047 
-0.0186822 0.00413572 -0.0294706 -0.0261013 0.006269 -0.0297952 -0.0244127 0.00581552 -0.0293873 
-0.0218067 0.00535466 -0.0298745 -0.0186304 0.0059903 -0.0297836 -0.0235562 0.00738524 -0.0295487 
-0.020212 0.00695887 -0.0297731 -0.0263414 0.00831947 -0.0298556 -0.0246382 0.00881793 -0.0292976 
-0.0213552 0.00822781 -0.0291987 -0.0191441 0.00835389 -0.0293814 -0.0281769 0.00927591 -0.0288439 
-0.0229177 0.00922167 -0.0296267 -0.0240822 0.0105012 -0.0301098 -0.0208065 0.0111653 -0.0296613 
-0.0291549 0.0116047 -0.0289686 -0.0228081 0.0113132 -0.0291334 -0.0175888 0.011445 -0.029662 
-0.0286204 0.0132525 -0.0294957 -0.0265273 0.0133814 -0.0295103 -0.0206303 0.0129166 -0.0292454 
-0.0188782 0.0126999 -0.0296007 -0.0278202 0.0148604 -0.0295905 -0.0232874 0.0143118 -0.0297389 
-0.0214744 0.0142913 -0.0300346 -0.0183035 0.0145213 -0.0293979 -0.0291286 0.0159442 -0.0289976 
-0.0223827 0.0158376 -0.030091 -0.0259393 0.0170036 -0.0299802 -0.024153 0.01616 -0.0300508 
-0.0175227 0.0161851 -0.0294702 -0.0283513 0.0175614 -0.028817 -0.0244646 0.0177413 -0.0292693 
-0.0228067 0.0175747 -0.0299404 -0.0205312 0.0176635 -0.0298684 -0.0186992 0.0177244 -0.0297347 
-0.0287332 0.0192071 -0.0294022 -0.0269476 0.0192063 -0.0291992 -0.0234158 0.0191867 -0.0290696 
-0.0215918 0.0189597 -0.0291767 -0.0197654 0.0191975 -0.0292838 -0.0177595 0.0192031 -0.0293369 
-0.0297597 0.00100255 -0.0283482 -0.0279781 0.000896114 -0.0281281 -0.024067 0.000910699 -0.0286845 
-0.0215611 0.000892173 -0.0290326 -0.0197764 0.000918833 -0.0288362 -0.0174222 0.00126761 -0.0280834 
-0.0272065 0.00252264 -0.028779 -0.0254548 0.00208823 -0.0286765 -0.0216388 0.0023844 -0.0280458 
-0.0195477 0.0027017 -0.0288314 -0.0206897 0.00391722 -0.0280879 -0.0300663 0.00446565 -0.0280217 
-0.0283138 0.00410378 -0.0278488 -0.0265608 0.00434359 -0.028145 -0.0236827 0.00450302 -0.028399 
-0.0284882 0.00580739 -0.0285668 -0.0268059 0.00628214 -0.0281382 -0.0251829 0.00544519 -0.0278084 
-0.02982 0.00698034 -0.0282902 -0.0280897 0.00753404 -0.0282642 -0.025473 0.00741113 -0.0285563 
-0.0239343 0.00673473 -0.0279153 -0.0221385 0.00669573 -0.0286953 -0.0190768 0.00658852 -0.0281578 
-0.017696 0.00733848 -0.0290469 -0.0230318 0.00829638 -0.0280915 -0.0297621 0.00996048 -0.0283404 
-0.0261063 0.00932879 -0.0283944 -0.0204209 0.00962901 -0.0285886 -0.0185888 0.0100444 -0.0291143 
-0.0274819 0.0109922 -0.0287151 -0.0256431 0.0110496 -0.0285935 -0.0240961 0.0101977 -0.0282856 
-0.0304105 0.0115566 -0.0276607 -0.0266552 0.0124184 -0.0280028 -0.0214263 0.0118022 -0.0280894 
-0.019504 0.0114622 -0.0284547 -0.0299429 0.0132143 -0.0281617 -0.0284053 0.0124809 -0.0275855 
-0.0245947 0.0125289 -0.0288119 -0.0232057 0.0134634 -0.0281591 -0.0286766 0.0144789 -0.0280631 
-0.0268813 0.0144098 -0.0280918 -0.0249574 0.0143921 -0.0285924 -0.0202049 0.0145938 -0.0287689 
-0.0303341 0.0155451 -0.027724 -0.0256618 0.016048 -0.0284813 -0.023867 0.0159997 -0.028286 
-0.0223372 0.0150766 -0.0284261 -0.0274596 0.0160873 -0.0283415 -0.0210601 0.0162259 -0.0289337 
-0.019284 0.0160875 -0.0291492 -0.0299889 0.017347 -0.0281076 -0.0265632 0.0176369 -0.0284223 
[...]
POINT_DATA 10000
FIELD FieldData 7
id 1 10000 int
3249 485 2411 5764 7751 9936 885 4025 3075 
1614 130 5392 4282 5836 8070 2434 4836 2772 
4667 2974 1526 4458 9223 6841 3293 7787 986 
3288 8585 9533 5504 7565 7918 8318 1767 7759 
6968 5606 1347 2307 867 8790 4537 9536 174 
2479 4284 2226 8175 9349 5974 1484 9613 6375 
4760 7689 1028 9784 4530 4305 9684 9411 8654 
1130 9924 8313 3307 3900 2255 745 2087 4966 
7679 3233 777 1177 3670 9790 2163 3786 2238 
161 8334 9 8923 7732 3859 5112 3153 2218 
8859 1664 5135 1366 1096 6795 7038 839 8085 
2100 1750 1639 2230 1307 9438 3916 1156 8880 
509 3273 5766 3399 4081 4500 3499 8322 3522 
7209 6382 3489 5763 6288 3975 8695 3244 2631 
4520 6229 2659 1098 4726 3318 922 9190 2379 
431 8173 4833 7333 347 1082 4157 4680 8008 
9513 5751 7358 7813 3027 7422 9754 8501 2921 
5401 2605 4918 1600 5341 6770 9594 5853 9860 
8791 2730 1419 3344 2842 4473 8260 5040 479 
5248 100 1502 7758 8831 4234 3497 9811 2291 
5148 7353 1590 6653 4618 8440 6259 5733 601 
4909 3051 6326 9308 3871 7039 2891 7658 1103 
8396 4263 300 7783 3806 9970 3585 9745 2503 
7916 5355 8628 5703 1401 2007 8124 930 3689 
7066 1551 3248 9429 7185 3869 4989 570 401 
9971 4236 5820 1055 3126 160 8418 3576 5361 
3205 4226 4138 524 9130 3389 4873 5459 1261 
3391 7659 6311 2533 54 3614 5284 8951 1640 
7670 9015 7041 9554 5562 7256 8411 5687 7788 
4337 8479 2471 8528 2929 2047 4522 8742 4745 
1940 4722 4776 226 2397 1984 3577 5 779 
6422 71 2078 2785 2593 7019 7397 2825 3110 
4985 8496 3107 577 2187 4069 934 5738 5798 
4494 9686 3426 4711 5398 670 869 3815 1127 
8353 5256 6113 6300 9783 1362 8111 5700 3718 
8210 9543 1997 3020 5937 474 5612 6632 8148 
7803 1996 9821 3756 8767 3084 3223 2445 2715 
3560 3423 1603 3539 2015 5832 3194 4651 4212 
9982 2074 9482 8430 3072 4571 3116 7847 4083 
6269 806 5685 8622 5901 7701 1462 5419 4422 
3538 3189 6550 312 2836 9962 3265 9250 4853 
2089 8904 3632 8170 8900 3645 3258 741 7247 
5233 4658 8580 7554 659 6532 7955 4036 5876 
141 5403 7196 4766 2849 8760 5469 9985 2140 
5489 5345 2326 458 5803 13 9994 5531 9284 
1926 7261 8652 3925 2422 3501 3050 3390 4434 
8317 9801 42 302 9735 585 2628 9636 4795 
3214 8803 6393 6902 7725 8041 2945 3018 6521 
9146 4647 681 4636 8763 1511 2637 1518 1044 
8798 608 4252 5572 2060 4635 1993 194 4687 
8911 2770 1675 8502 5170 5701 8156 182 3840 
9201 6192 9247 2486 2204 6996 8937 2325 7121 
9451 6599 4558 5593 5600 4129 26 9331 4454 
9396 1259 5342 4585 8843 6472 4508 1321 4541 
9717 3545 8925 1024 223 916 6225 3516 2275 
6677 1648 5360 3509 8513 3659 1738 5895 3596 
3956 8984 2145 1311 8976 7775 8766 9347 4560 
3163 4747 5515 5044 6879 1421 3327 3847 4949 
8746 1243 252 5381 7301 1334 9810 3252 7327 
8826 6986 7453 4031 2094 5436 5222 1893 8154 
4597 9885 4644 891 7582 352 9587 7840 326 
2150 1668 411 1358 9996 8949 7347 1887 3002 
4101 47 947 1412 6049 5944 4931 9413 3790 
8321 4008 5484 3957 7289 3003 2888 3142 7981 
8822 1514 4642 2723 6006 9665 8432 7744 2509 
4686 1078 5009 3933 9456 675 3198 7383 7043 
7076 3671 6232 3243 6881 6998 7923 945 4630 
9424 8549 7778 7604 7296 6640 2633 1505 2915 
3106 371 4865 1642 9670 3468 7506 4809 2860 
719 6154 8378 8012 506 2612 8480 4022 6153 
5657 4265 357 1922 9333 6090 5985 8066 1451 
6516 3572 1918 710 2250 7026 910 7299 7350 
5062 6174 9642 8538 5622 4063 817 4363 6111 
7883 5918 5473 1489 7368 3124 7484 8045 3063 
2687 2702 1862 4946 4569 1074 3973 4443 1903 
5210 5092 2794 9306 4880 3271 3245 7 6254 
9338 5018 5799 2448 1106 6498 7864 7851 903 
6251 9420 9709 3436 4218 3697 3527 9153 7297 
3333 1016 8777 5841 871 4796 7419 6058 6489 
6188 6304 567 9746 1579 2337 4345 7913 1294 
8258 6186 6219 6272 7348 6621 6082 1228 7329 
6909 9569 5872 1395 3570 416 3494 2784 5617 
8806 1685 7890 6302 3289 6327 3969 4893 2971 
4902 9685 2205 2133 8509 5220 9351 2086 8079 
2651 8986 1146 1064 4586 7887 3472 7467 1145 
1274 6535 4523 2425 8761 3653 1980 3683 2116 
8048 562 9680 2562 3429 4842 2180 4053 5846 
811 5410 6324 2289 6155 476 348 1486 6343 
9531 1305 6979 8164 499 8751 5432 1246 2440 
4211 5778 1272 6125 8089 6564 1864 5229 9778 
4660 3408 9033 3879 4216 1520 4267 1705 610 
3216 5095 7344 713 4114 6673 4194 2598 1989 
8789 9541 6512 1929 2903 4881 9230 3740 2650 
2232 7768 4580 7904 6991 928 9872 5568 5758 
874 2550 2012 6074 1356 1442 2068 1841 6609 
9175 1203 9674 5146 4506 2018 5947 5614 2439 
3202 6297 9079 2747 4121 2006 5373 2627 3137 
8563 6713 9177 8600 2038 7742 3641 6720 7878 
7098 2342 6774 6961 890 6513 6585 9313 2481 
5641 7977 2522 8435 379 2511 4806 5780 7509 
4367 6307 3504 5032 4016 2138 8264 7064 7118 
1192 9350 9750 6274 5961 9269 5740 4483 902 
6306 1301 5962 1529 4704 1966 178 8242 6208 
8113 2830 4099 6574 1418 1207 394 2847 6952 
16 6657 1357 9648 6561 4973 2684 8339 3980 
1873 3932 3035 5292 8847 5986 9063 1325 2260 
5587 2375 2132 4871 7384 4831 8469 1150 6469 
5074 9122 4032 441 1513 4201 6965 4183 8491 
761 4712 5251 553 6932 923 9622 4805 9630 
3069 97 8641 6772 6202 2300 4369 4911 3725 
3242 8325 3788 8052 2662 7953 9168 7875 6291 
2621 2338 1687 4621 4406 8208 9432 6575 7402 
6336 2972 8482 7125 662 7198 7696 3889 7410 
6341 7956 909 3738 8975 2531 5338 6940 5588 
7172 1288 2887 8629 5138 5019 7962 2502 8251 
9777 642 1459 6143 2689 8861 1312 7754 6008 
9287 7838 2617 6315 2734 6735 9929 6776 2758 
4146 64 734 7183 6139 7034 4281 5375 5082 
2350 402 7837 1557 3177 7692 4707 1572 2413 
6547 4705 7966 9950 240 4415 9753 1568 5041 
2143 6848 2487 9151 2853 8901 6431 6824 3551 
2098 3046 8316 6856 7077 9213 3201 7004 8117 
7653 5390 894 8611 9070 5331 3445 7746 522 
8356 8024 1804 4331 2594 9501 7418 7876 4514 
730 5026 8730 8133 9959 3172 5694 4782 3970 
1743 1726 1473 7826 5078 7313 6924 306 7517 
9999 8010 8125 1034 8895 41 5330 366 3586 
1198 9865 554 5973 6215 4977 4493 8883 7674 
9979 8220 3884 9605 3543 2674 7163 1859 786 
2457 7863 2707 8403 6016 22 1212 7480 5571 
2629 6198 125 3208 5809 717 3855 9050 258 
1942 420 845 6135 1704 8546 2690 319 5301 
3810 1006 1548 3622 4641 7489 9097 8941 1935 
1339 5584 5761 4837 2780 5005 699 8710 6089 
9695 3769 2880 9428 5669 7727 7777 1154 3147 
6194 246 8344 895 1115 6316 4400 8627 32 
3986 1528 4942 938 6771 1153 3959 4718 6487 
2431 4743 2655 4256 3690 443 6308 3668 9357 
837 7216 7012 3401 1398 7739 6184 597 461 
8460 5231 580 7233 3444 5632 9295 5771 9354 
4544 8180 820 6832 9900 9526 6128 6067 9773 
5542 2967 6892 9360 5609 3581 3185 6904 3634 
1100 7113 8055 3079 207 6220 2920 6418 7365 
2845 2443 969 2185 6855 6543 6137 9772 1879 
1214 7809 3562 8042 9296 3563 460 2668 596 
1062 6339 2281 9884 9503 8191 7499 1562 4046 
2402 9159 5202 5959 5715 1385 671 3958 4361 
1281 4531 9855 8868 4677 275 5668 7502 8582 
1605 466 502 8768 3624 3161 975 1931 6425 
9845 6971 7165 7374 3883 4627 6796 6284 3760 
3345 4304 2919 8734 1539 4923 9728 2819 2748 
2301 8054 5315 4728 4799 751 735 1420 9688 
1256 729 5239 6036 206 7128 4186 7695 2530 
6180 7612 2497 5523 7848 1204 9877 4292 6015 
4479 2223 5635 7458 6953 4482 8816 3525 4441 
8956 9394 4321 1289 7018 7263 9430 5589 9292 
7002 1564 277 1574 566 6851 8885 2470 9106 
7403 5749 9275 6705 4270 1837 8554 9309 1141 
7839 5583 6094 5446 4673 8645 4852 9344 863 
5067 4553 8759 5366 3317 1503 3662 6231 9675 
2349 7200 4681 5663 4834 1609 4208 1107 3475 
2280 4606 7537 9417 393 8494 913 5133 7532 
1815 7982 5576 2835 1070 1766 2524 391 8649 
10000 5476 6723 4832 5714 459 5305 6443 1458 
8195 9658 3372 2335 5328 4049 7936 8702 9054 
34 1293 4638 1265 1751 4759 1287 684 60 
5365 7258 2330 5887 340 9353 8569 5207 3006 
5159 1936 8272 7423 955 4528 8370 7496 2080 
5578 7523 2541 5977 3984 4808 4861 143 2909 
248 2514 9609 8943 1880 8413 7421 2695 9009 
8682 1238 1056 6631 7199 1727 1374 4798 9361 
4950 3367 4922 2978 9224 4706 5898 2846 9340 
8196 9608 5269 5651 5349 8638 9849 8891 8594 
1955 7756 4277 4464 231 2198 9661 1481 7559 
2774 6195 7906 6459 1690 1645 9669 4982 8752 
9402 9298 4368 624 7303 49 325 3964 9555 
1217 648 76 38 7372 3669 5490 8736 8893 
899 2645 2235 9883 4634 9823 3852 8036 5932 
1292 5075 2225 8157 2861 4562 4933 3591 5681 
1338 3173 4164 8613 5175 1490 3657 7685 4469 
9094 8122 4624 455 5972 2219 2727 7800 824 
2547 2051 1601 298 2126 6636 6305 2013 5421 
3983 3230 8490 665 4214 8516 4279 4662 1622 
7613 1658 9756 9949 8357 4429 3398 2000 2240 
9290 9651 4056 5930 8793 9868 7037 1971 3040 
2121 9928 3695 6435 8865 7116 9895 1635 5508 
588 9635 6171 1104 6060 2334 7852 1336 5934 
6478 575 5027 6769 9293 1318 605 1320 7815 
8578 279 6314 3582 8894 9373 9902 5857 4254 
7382 4007 9978 4845 7652 9918 48 1865 989 
527 7611 4335 3378 9173 1122 517 8241 271 
8280 7311 1730 5893 7293 211 8863 1580 5549 
4325 2407 2708 4079 9166 6005 1647 9330 4986 
2148 6331 9068 8005 2677 5448 3464 4159 6751 
7781 2614 8918 4306 936 6169 4262 3599 4322 
7377 1167 8426 636 4844 9062 5860 6042 4004 
5746 8194 5014 7726 3310 62 3335 7750 4084 
3103 6149 9019 9260 6643 4696 1748 8533 785 
6810 6193 2675 3113 5648 774 1797 4596 6488 
6407 29 1534 3854 2948 176 3703 5676 9926 
5869 6040 9118 2710 5257 1813 5172 8602 1184 
3550 4907 8630 4098 196 8921 3055 6009 4823 
8683 9030 4779 282 8505 3517 9581 8182 359 
5003 2033 8134 8187 8305 5030 3007 4965 7630 
8835 1976 9047 9833 5214 1890 3877 5150 9031 
6935 8962 7008 1990 7841 9706 8031 7389 1377 
4457 3492 9992 866 1067 4926 3629 5951 7558 
4723 9719 3303 381 281 2540 8944 3029 9743 
1061 1221 2623 2381 1806 6805 146 9141 9434 
5595 7541 3026 9662 6179 2899 3013 7000 188 
7298 3321 5647 2097 2709 6712 6666 195 4351 
2824 2058 542 3649 6084 2602 5554 5362 6344 
4030 244 2318 5487 8994 3989 4229 3533 5971 
6933 3935 2046 8946 2931 2427 9796 5130 1643 
3985 9548 7328 836 5336 2272 4094 8574 8064 
7572 3654 4619 6981 342 3707 7229 241 5563 
4092 6494 3315 4189 6530 4769 3431 5885 3705 
9226 8276 7060 3448 8385 220 9499 1985 2222 
3865 6948 1021 686 9232 2484 4421 1876 9496 
8519 9101 3913 5106 2294 5997 697 3300 9412 
593 3558 8346 3488 2066 2366 5881 9004 8312 
3953 5686 162 6733 2351 2956 9698 1602 5989 
3203 7192 3314 4957 8855 6163 4210 4474 2574 
7671 4684 5080 6816 2467 5806 5992 3526 3220 
4685 8690 8110 6919 3294 8896 8144 8714 1441 
7411 4991 8145 2548 4389 1178 2993 2592 6160 
957 6022 7446 3306 8025 4749 1752 4184 6914 
718 5132 6697 9663 2969 1015 6447 9162 5698 
7213 7731 2900 2793 9689 2761 3552 5970 6691 
8540 1663 8381 725 760 5353 7338 9944 838 
5866 2565 4370 6787 7065 5981 5910 6052 9052 
1573 4716 1710 5001 6921 1809 6560 7705 3312 
2837 8291 7655 9980 9164 6416 8920 4171 3977 
7401 2168 8991 8047 9178 8300 6773 1540 5152 
3032 9126 8716 2526 4617 9575 1762 4919 7601 
6228 2666 6330 6083 6600 9335 5677 5343 2572 
5842 3284 6852 1776 8200 7274 5154 1604 1741 
1630 3639 1613 1415 1960 9471 8050 8727 5449 
2949 4578 5541 1394 5902 4653 3872 370 216 
3603 8240 1910 3053 712 2996 2389 7605 5874 
2630 4075 1188 74 4315 6555 228 2813 5858 
1671 1708 6988 4414 2463 2682 96 747 7273 
1277 1206 5513 2110 6199 2405 2455 9954 7825 
7521 5101 5727 1493 4481 8795 8335 6277 427 
8537 9864 3870 7866 6598 3096 668 1255 3549 
5113 3341 9529 9215 8281 3853 8753 2095 5753 
9704 9157 2399 2322 4418 3898 9136 5805 7493 
1948 2221 4792 5744 1680 230 1822 7873 9263 
8293 7711 9370 316 8939 439 7227 6285 3886 
7734 1597 9619 6582 6966 5340 1715 4913 7251 
2436 1269 1982 4082 6262 7545 4005 2446 1139 
1360 3568 7067 1522 1455 7415 1945 6366 764 
7511 1140 3895 3394 3633 5166 5594 7797 4589 
859 3681 4118 5550 2927 4467 1250 3375 2732 
6908 1322 8039 7931 1843 904 9285 8601 5759 
1069 4074 579 7001 9836 9817 4810 8787 1882 
2359 3304 9535 3553 9646 2309 583 304 8606 
625 3435 3437 5153 5514 8721 9323 5105 7745 
209 8718 4564 2380 9129 6178 9240 7628 9195 
7602 1124 1468 2800 1560 8817 1969 8833 5033 
4295 7106 2027 2461 2741 9620 5083 1087 6534 
8604 39 8781 4652 1981 6927 386 3971 3866 
7790 1607 7204 7244 7666 1986 963 8572 6299 
6679 1881 2705 5913 1814 9933 1335 6032 6957 
9303 7882 8087 7188 2864 7190 200 5650 4516 
1282 5683 878 414 3507 9028 1501 2388 5494 
7056 2357 2258 5249 129 905 6822 2460 720 
59 1251 3994 6747 5498 5570 283 6888 6073 
2378 2212 2247 1144 1327 3651 4116 951 4423 
6916 5511 1472 5407 6527 3217 4771 8184 6731 
6355 5767 8978 5607 3710 4060 5958 8436 7455 
5413 6041 2229 1957 7740 4276 2922 4785 6243 
2795 9008 451 4625 2127 4471 8088 4386 31 
3005 7822 3519 257 4894 2302 7833 4733 1457 
1933 6227 1632 35 5674 7522 4012 5287 3225 
8971 1924 7159 8536 3625 2698 1175 540 6531 
9644 4033 9504 8838 8388 1432 5351 4825 7385 
7634 6818 1999 1344 8550 5620 759 6812 6590 
6122 3948 1589 3823 117 4076 4073 6834 816 
6837 2696 1323 1968 9014 7246 7197 6520 7308 
8405 139 5919 3868 4708 8723 6529 5322 5155 
8431 5396 8733 6238 1525 3891 6843 1701 6257 
327 3170 4713 5557 3838 3802 5454 2719 3199 
5816 8487 4960 4735 4302 3263 175 3693 7780 
8340 4847 2262 1160 3062 5706 2699 5608 646 
4956 4732 7723 3772 5890 1857 959 478 1423 
6345 9702 8656 977 7762 1169 851 7997 2763 
5236 5192 4127 2109 3844 7662 4694 7435 661 
6150 1954 3452 1689 7073 4967 5470 2124 7987 
9440 1728 5765 7335 2233 3022 5949 7253 2691 
5500 184 3393 1370 7557 8878 6144 335 7807 
1113 3914 2751 8696 7596 1838 4152 3909 7035 
9997 8056 3702 6120 1275 7181 8253 6138 53 
4863 5093 6019 5717 1211 4650 3805 3166 4103 
4813 6671 8267 9803 8472 234 9423 52 9473 
6456 1912 7640 7075 5307 8633 691 3328 3498 
1205 5482 9589 9507 5811 7442 4753 6038 8218 
2393 9289 1460 8275 7176 8152 6464 3482 2941 
3366 3104 487 5855 8492 9067 5198 5358 7013 
8097 6384 9452 4199 9938 5142 2960 4996 2081 
2827 2740 137 6482 3486 4515 5545 3484 7321 
9961 1402 973 6212 9139 3250 436 3218 8454 
4623 445 6294 3193 3187 4689 2209 3930 7642 
3950 4089 9797 5979 2559 8814 8820 4180 4540 
5770 3417 1827 2505 9953 8888 7186 4700 6216 
8095 123 5879 7812 6486 4034 6107 2358 6993 
3478 8512 8427 1026 8871 849 4709 7552 9208 
9242 4009 2749 1509 356 9766 9110 1158 4228 
654 5127 5968 2170 6540 4364 7599 8406 4250 
7710 1466 3132 7796 7408 5777 3152 4817 5149 
8916 2237 2832 991 6782 5223 7623 3347 8776 
4420 5819 341 6869 778 9214 5466 3197 79 
3060 8471 6871 9383 5597 6079 1983 1102 164 
5246 6514 349 815 8583 4286 2009 2450 105 
3592 6860 6907 3929 8203 4866 1134 4851 5739 
1537 9256 1944 7094 3365 5057 933 1030 8268 
6440 6047 6539 5750 9387 4916 4802 387 4455 
7230 8981 4656 4934 2356 3117 8123 8310 4167 
6984 8057 1569 594 2987 5509 877 609 9135 
7237 7716 6338 1426 8043 5025 2112 4396 6203 
17 7828 6124 6791 7325 3204 9086 5984 7980 
5822 9629 1091 8598 4524 7660 7337 5333 7268 
8821 87 5264 8163 8414 8786 3954 9621 2216 
6012 5845 291 7394 321 1306 7693 9502 8252 
1485 2193 157 5671 5658 2171 690 7202 1793 
8395 1314 5927 9048 5022 979 3944 7082 5672 
5830 5400 6405 6072 1678 1994 2203 4 8485 
6235 9455 650 9032 4816 6379 7960 9459 9627 
6097 309 3133 7675 1241 3612 4740 7507 6868 
7096 8829 1819 700 1734 6775 1242 592 6809 
4052 4231 7832 7157 3514 5575 392 9968 8029 
473 6835 7698 7678 7638 2485 1329 1049 6980 
467 4272 3508 1559 7743 6460 4764 5539 7324 
9403 9948 7986 4340 6441 9000 2717 2003 5707 
4068 9974 4475 9987 5795 1252 3070 6268 9239 
2123 9036 417 8974 437 655 4242 970 7907 
2096 7135 987 7285 6386 5532 7620 3515 3795 
4072 9022 9359 4778 3554 4748 6317 9450 3573 
732 5216 5416 9246 361 424 2136 9176 6533 
6264 2556 3609 2958 6785 5935 9171 9363 2510 
8382 8464 3919 3257 3196 9830 8612 1162 287 
4692 3274 9984 846 2288 8438 2661 5297 1959 
9941 6781 4588 5310 6273 7699 3800 8224 9131 
5943 504 2207 1840 6833 4015 9203 8397 6726 
9758 2141 484 1732 4972 561 9852 2917 7736 
7326 1578 2257 2164 4940 7169 2938 6240 9488 
1164 9209 4900 9937 825 3462 6889 2310 5920 
8234 7151 9578 2798 6332 2099 714 5847 4856 
3190 771 8719 7068 6759 6577 363 9426 8846 
1497 3600 8561 5480 3320 6502 3704 6323 6471 
2980 4887 190 4595 5168 3904 2600 8167 7475 
2951 7093 2762 2998 3536 2902 7927 2768 2934 
1478 2721 5661 3761 4819 2658 2387 5136 6551 
6567 6394 822 9673 4111 4206 8989 3015 3146 
5051 8099 5953 3171 3817 438 1014 2444 2940 
6592 4639 7021 2966 5560 4503 3574 7146 5103 
1008 4615 189 1709 1555 9345 9320 7072 4763 
9871 9903 4051 7282 726 4643 5122 5116 5055 
2220 7717 7764 3376 7483 798 8897 180 927 
6201 8577 3939 4772 889 6732 333 9572 5861 
3686 351 6239 513 1037 6628 9602 8151 3918 
1869 3238 961 7694 8845 9485 9469 6260 1681 
9795 1095 8773 9703 3530 2735 1702 480 7485 
8619 7248 4786 1593 3188 1914 7637 5453 6039 
2826 3460 3379 508 101 9701 3767 1257 1616 
1615 4994 9886 4433 2371 5156 6256 2035 8725 
1531 565 6206 841 7799 2799 1558 3213 1118 
9726 9034 9966 4892 4343 5631 9693 2910 8297 
2575 1279 2157 2596 7158 3765 2383 6411 9705 
7669 8621 721 9006 4273 6289 2604 1373 942 
3224 2008 9245 5741 4602 1187 3151 9400 9736 
9923 1341 3766 2642 2367 4431 1253 20 4576 
9816 9170 2577 3792 6437 4439 2678 5147 5779 
6296 4815 7586 3016 9851 9659 7189 2459 2101 
1195 4826 5458 3179 6553 3894 3580 9765 2075 
5450 2452 4824 7824 7460 6517 5815 4449 9458 
345 8913 1019 106 3658 11 380 9825 6409 
1483 9538 886 382 1919 3941 997 3694 677 
3074 1866 5800 9597 9376 9671 4855 5348 6963 
1974 2537 4935 7381 5873 8074 1369 8852 2641 
5099 6650 7456 3754 639 3782 6760 2869 8873 
1404 4964 1512 5158 7055 1035 3309 6497 3755 
3666 7626 7444 224 9042 2267 1361 490 108 
2907 7811 3329 4781 3997 4283 7236 9539 1126 
6992 238 4691 9638 1707 5705 1179 8211 6197 
1076 801 6096 1333 77 9415 9343 7153 7310 
8351 3420 237 9600 5072 9234 8808 344 7206 
21 3684 90 9545 9694 3235 7417 1230 1249 
4590 8109 9639 1820 2640 423 2821 9522 8016 
4613 9590 8965 7512 3978 9546 3421 9297 9544 
4720 3093 4064 4087 8587 4534 3481 9947 9782 
4645 1716 5189 5769 2959 3613 360 9115 3511 
4399 6778 4326 2328 2889 9692 8866 7309 8352 
685 9832 2590 2567 8410 7376 946 8804 1829 
7063 9915 9371 3180 3165 5274 5730 6819 9579 
7661 920 6395 9542 9198 2023 1844 2624 7431 
8486 9479 4846 9199 3447 8765 4014 9827 30 
4029 3912 260 68 7359 9747 5428 7897 6683 
5010 4582 2828 6121 3915 7771 6280 9229 1519 
85 8004 4739 7182 9844 635 6681 8947 6727 
598 2790 483 8518 9023 7709 9853 9561 290 
3439 9520 4387 4397 9565 6446 1012 197 5334 
1112 9965 952 24 4347 2039 4628 6970 4538 
193 1063 3123 2622 828 5840 2521 3043 4990 
4271 3473 6501 4232 5654 9248 4365 2538 5157 
4822 8877 9332 7958 5352 1764 8412 3077 666 
3021 9906 4207 4026 1852 6035 3741 6146 9500 
7930 7737 4951 1870 7177 9069 1595 818 6876 
7239 6145 3395 9757 5695 9873 6430 7508 1698 
9098 6756 4788 9551 5230 442 9243 9410 9272 
1391 9281 8034 1017 2108 634 8711 7291 5429 
1754 1777 9550 758 6505 2370 6719 8783 9148 
2680 9220 1549 4190 3292 1783 6829 9179 3963 
5186 4078 7111 4783 1585 6511 3675 301 9759 
7361 7318 6541 9316 7579 5889 7885 2048 2892 
3864 1949 2733 1263 9681 9774 3091 3098 9405 
6438 4714 3149 5883 2365 9731 1086 3262 7704 
9460 9584 8424 9282 7814 7005 1791 8967 6161 
7156 6287 1088 6046 2340 1417 1532 9913 4221 
8756 5139 5474 9557 8128 8228 7371 2724 3441 
7855 2817 5379 1636 9652 9088 9862 9633 8451 
4450 8421 6985 9653 3529 6104 5321 6660 528 
377 2478 5193 8579 9815 7272 5140 767 2720 
830 4336 8671 3011 3787 3463 9977 9085 9846 
7449 7498 8532 9656 1714 9911 9791 9571 1181 
8006 915 2433 320 3842 3219 6602 7434 1258 
9389 1266 529 4754 8257 7439 4453 9920 2186 
4023 6279 9225 4141 5283 3966 2192 6031 9444 
6748 7052 5963 578 862 3313 6023 8857 9789 
261 7259 9995 8545 9623 8158 2241 4043 5299 
9762 8881 5434 6112 8958 9814 8160 7939 2571 
6024 6899 5590 9588 7472 3433 8225 5346 9863 
7305 1367 7831 5389 5774 5069 6762 6793 4981 
6823 7892 1875 9859 2489 6450 2603 7445 9943 
7808 1413 971 303 2449 8701 4622 5181 9894 
5408 5397 5623 415 8219 1611 9056 1897 8026 
8 7500 8372 9690 3290 2854 9908 2701 6088 
7133 5036 8236 1799 3753 1430 8772 7830 917 
2213 2706 9606 2441 8922 7266 8637 4690 1245 
1850 7587 7386 8972 8931 7173 3255 4775 3100 
2878 8810 1567 6728 6098 6210 3901 9515 9580 
5965 604 9261 4841 9910 6078 3809 8636 9683 
9922 9934 7573 9857 9696 6490 6091 1700 6873 