# vtk DataFile Version 4.2
Generated by LIGGGHTS
ASCII
DATASET POLYDATA
POINTS 21992 float
0.00725434 -0.0991987 -0.0486423 -0.00020864 -0.0880097 -0.0491432 -0.0018432 -0.0824628 -0.0491608 
-0.00430302 -0.0763996 -0.0489433 -0.0074078 -0.0738068 -0.0486096 -0.00508861 -0.0496013 -0.048882 
0.00619968 -0.037354 -0.0487562 0.000418228 -0.034773 -0.0491431 -0.00580008 -0.0325785 -0.0488169 
-0.00446502 -0.0277661 -0.0486915 -0.00447602 -0.0191752 -0.0489159 0.00299126 -0.00667253 -0.0490924 
0.00824299 -0.00714148 -0.0484814 0.00060846 -7.75553e-05 -0.0491364 -0.00651722 0.0250727 -0.0487598 
-0.000643981 0.0478381 -0.049149 0.00386941 0.0482295 -0.0488756 -0.00458231 0.0700306 -0.048928 
0.000295418 0.0783734 -0.0491377 0.00331537 0.0852372 -0.0490687 -0.00136585 0.0869798 -0.049156 
-0.00402095 0.0940213 -0.0485749 -0.0147692 -0.0981826 -0.0458175 -0.00960537 -0.0981675 -0.0471577 
-0.00648649 -0.0964989 -0.0462139 -0.00530222 -0.0981721 -0.0478405 -0.00167696 -0.0981341 -0.0481397 
0.00176879 -0.0981931 -0.04614 0.00497278 -0.0981729 -0.0478645 0.00861474 -0.097343 -0.0473569 
0.0122512 -0.0981824 -0.0465896 -0.0122406 -0.0956747 -0.046563 -0.00618761 -0.0944013 -0.0477689 
-0.0025411 -0.0939455 -0.0480912 0.0026377 -0.095266 -0.0481035 0.0116686 -0.0946006 -0.0467246 
-0.0142106 -0.0926744 -0.0459881 -0.01242 -0.0913815 -0.0475647 -0.0102033 -0.0926934 -0.0470452 
0.00224965 -0.0916523 -0.048106 0.00580986 -0.0923038 -0.0477768 -0.0132143 -0.089187 -0.0462767 
-0.00793736 -0.0894297 -0.0474812 -0.0046968 -0.0910239 -0.0479034 -0.0011381 -0.0903372 -0.0481356 
0.00804885 -0.0894537 -0.0474848 0.0112726 -0.090994 -0.0468154 -0.00475995 -0.0873608 -0.0478865 
0.00291783 -0.088076 -0.0480867 0.00586102 -0.0868544 -0.0462124 -0.0125633 -0.0856059 -0.0464639 
-0.00903183 -0.0859665 -0.047265 -0.00141699 -0.085915 -0.0481366 0.00373609 -0.0845262 -0.0480086 
0.00924429 -0.0859796 -0.0472335 0.013096 -0.0844007 -0.0463259 -0.0111858 -0.0821293 -0.0468646 
-0.00762777 -0.0826219 -0.0475389 -0.00407433 -0.0834338 -0.0479549 0.00092534 -0.0822282 -0.0481202 
0.00588414 -0.0816042 -0.0477681 0.00974336 -0.0817077 -0.0471283 -0.0133022 -0.0792102 -0.0462533 
-0.00979652 -0.078778 -0.0471281 -0.00192877 -0.0798865 -0.0481388 0.0014875 -0.0790006 -0.0465451 
0.0108761 -0.0791558 -0.0479046 0.0132213 -0.0807627 -0.0462854 -0.00959247 -0.0760918 -0.0465009 
-0.00715286 -0.0763246 -0.0476239 -0.00365848 -0.0772432 -0.046254 -0.000648468 -0.0764814 -0.0481349 
0.00474965 -0.0781458 -0.0478925 0.00834723 -0.0783638 -0.0474177 0.0125329 -0.0771997 -0.0465087 
-0.0122516 -0.0756761 -0.0465532 -0.0100153 -0.0751942 -0.0480673 -0.00362268 -0.0740501 -0.0479927 
0.0027318 -0.075131 -0.0480971 0.00652204 -0.0749712 -0.0476968 0.0102056 -0.0742612 -0.0470302 
-0.0147997 -0.0721799 -0.0458107 -0.00944546 -0.07276 -0.0471937 -0.00611779 -0.0714145 -0.0477738 
-0.000173121 -0.0728767 -0.0481277 0.000871123 -0.0709145 -0.0467526 0.00310788 -0.0711294 -0.0480729 
0.00671431 -0.0708678 -0.0476873 -0.0118843 -0.0701155 -0.0466835 -0.00857989 -0.0687717 -0.0473605 
-0.00268509 -0.0702458 -0.0480721 0.000476668 -0.0683574 -0.0481262 0.0130487 -0.0694427 -0.0463471 
-0.00664957 -0.0657135 -0.0477233 -0.00314972 -0.06664 -0.048042 0.00403405 -0.067226 -0.0479745 
0.00764576 -0.0667354 -0.0475711 0.0125455 -0.0658459 -0.0465063 0.0169938 -0.0681104 -0.0461653 
-0.0123057 -0.0653173 -0.0465422 -3.67581e-05 -0.0647592 -0.0481238 0.00644534 -0.0631996 -0.0477038 
-0.0116055 -0.0609988 -0.046749 -0.00813681 -0.0618576 -0.0474346 -0.00461747 -0.062666 -0.0478983 
0.000220965 -0.0618426 -0.0459684 0.00316128 -0.0616824 -0.0480726 0.011779 -0.0613234 -0.0467101 
-0.0148488 -0.0596584 -0.0457944 -0.00766114 -0.0581762 -0.0475358 -0.00592497 -0.0604478 -0.0473963 
-0.00403742 -0.0587123 -0.0479523 -0.000169132 -0.0589231 -0.0481242 0.00556118 -0.0586344 -0.0478023 
-0.0146122 -0.0559229 -0.0458749 -0.0111437 -0.0571584 -0.0468601 -0.00536249 -0.0553247 -0.0478347 
-0.00266707 -0.0563465 -0.046119 -0.00131325 -0.0554603 -0.0481529 0.00229155 -0.0559207 -0.0481071 
0.0107094 -0.0568322 -0.0469266 -0.0122323 -0.0547769 -0.04602 -0.0104801 -0.0530397 -0.0469779 
0.00748096 -0.0552878 -0.0475915 0.0123079 -0.0535856 -0.0465853 -0.014525 -0.0522886 -0.0458952 
-0.00670702 -0.0519441 -0.0477098 -0.00309666 -0.0522807 -0.048034 0.000537403 -0.0521118 -0.0481176 
0.00415061 -0.0527205 -0.0479499 0.0090946 -0.0520329 -0.0472635 -0.0149229 -0.0477358 -0.0457755 
-0.00830824 -0.0492804 -0.0458245 -0.0012037 -0.050139 -0.0478964 0.00091298 -0.0484922 -0.048121 
0.00483716 -0.0489574 -0.0478929 0.0106123 -0.0487399 -0.0469439 0.0141164 -0.0484427 -0.0460071 
-0.0111721 -0.0467644 -0.0468677 -0.00640507 -0.0468735 -0.0477509 -0.00282972 -0.0474427 -0.0480647 
0.00323559 -0.0456961 -0.04805 0.00766371 -0.0467043 -0.0475649 0.0121858 -0.0454169 -0.0466151 
-0.0140519 -0.0442 -0.0460301 -0.00737508 -0.0433815 -0.0475848 -0.00377871 -0.0437806 -0.0479832 
-0.000298154 -0.0448368 -0.0481269 0.00572142 -0.0430573 -0.0477847 0.00902187 -0.0438099 -0.0458407 
-0.0138722 -0.040547 -0.0460971 -0.0105603 -0.0417502 -0.0469744 -0.00116287 -0.0406176 -0.0481379 
0.00214004 -0.0421396 -0.0481056 0.00838096 -0.0406035 -0.0474178 0.0120116 -0.041772 -0.0466543 
-0.0103096 -0.038122 -0.0470192 -0.00441862 -0.0390205 -0.0479383 0.00191497 -0.0383397 -0.0462514 
0.00494561 -0.0395037 -0.047873 0.0109262 -0.0379382 -0.0468769 -0.0139096 -0.0369095 -0.0460863 
-0.00706827 -0.0364651 -0.0473443 -0.000827284 -0.0368896 -0.0481455 0.00135157 -0.0347779 -0.0457702 
0.00403052 -0.0358967 -0.0479635 0.0073963 -0.0373013 -0.0462856 -0.0112176 -0.0345897 -0.0468521 
-0.00801707 -0.0329544 -0.0474484 -0.00395044 -0.0346 -0.0479632 -0.00454155 -0.0333023 -0.0457699 
-0.00085832 -0.0326942 -0.0481314 0.00276401 -0.0323659 -0.0480974 0.00708388 -0.033949 -0.0476454 
0.0106179 -0.0326021 -0.0469501 0.0140686 -0.0338291 -0.0460212 -0.0127285 -0.0312973 -0.0464208 
-0.00960134 -0.0295893 -0.0471616 -0.0057543 -0.0301307 -0.0477986 0.00588359 -0.030525 -0.047773 
0.0133796 -0.0301957 -0.0462372 -0.012655 -0.0274657 -0.0464397 -0.00462346 -0.0278722 -0.0467832 
-0.00225218 -0.0292184 -0.0481171 0.00137792 -0.0290052 -0.0481115 0.00947392 -0.0289063 -0.047179 
-0.0100998 -0.0247021 -0.0470644 -0.00717322 -0.0267856 -0.0476228 -0.00399998 -0.0250364 -0.0479577 
-0.000455254 -0.0258505 -0.0480552 0.00315734 -0.0254625 -0.0480822 0.00645548 -0.0269403 -0.0477035 
0.0121083 -0.0264378 -0.0466277 -0.013126 -0.0228402 -0.0463022 -0.00698233 -0.0229147 -0.0476503 
0.000500968 -0.0223002 -0.0481179 0.00893889 -0.0243199 -0.0472949 -0.0142308 -0.0193942 -0.0459843 
-0.0030165 -0.0213133 -0.0480501 0.00318943 -0.0197461 -0.0480573 0.00666566 -0.0213724 -0.0476793 
0.0102241 -0.0209274 -0.047029 0.0147314 -0.0211983 -0.0458028 -0.010609 -0.0184839 -0.0469726 
-0.00678848 -0.019248 -0.0476971 -0.00359284 -0.0167467 -0.0479962 -0.000464862 -0.0186437 -0.0481334 
0.00678764 -0.0177215 -0.0476688 0.0109655 -0.0173762 -0.0468778 -0.0167851 -0.0151217 -0.0462138 
-0.0142441 -0.0157438 -0.0459712 -0.0107173 -0.0148424 -0.0469475 -0.00693972 -0.0153324 -0.047666 
-0.000378059 -0.0150111 -0.0481265 0.00356797 -0.0160663 -0.0480265 0.0086624 -0.0146082 -0.0473577 
-0.0144207 -0.0118575 -0.0459288 -0.00843519 -0.0120024 -0.0473978 -0.00464213 -0.012518 -0.0478955 
0.00217663 -0.013452 -0.0458114 0.00575176 -0.0128895 -0.0460476 0.013907 -0.0138173 -0.0460691 
-0.010684 -0.0091963 -0.0468524 -0.00112524 -0.0114548 -0.0481352 0.00288475 -0.0107238 -0.0480986 
0.0079932 -0.00967951 -0.0474909 0.011239 -0.0114651 -0.0468236 -0.0140294 -0.00802427 -0.0460357 
-0.00678333 -0.00877329 -0.0476901 -0.00315316 -0.00844406 -0.0480353 0.000691012 -0.00749375 -0.0481179 
0.0123701 -0.00790399 -0.0465597 -0.0158596 -0.00517045 -0.0465588 -0.00906336 -0.00596469 -0.0472664 
-0.00253888 -0.00475026 -0.0480797 0.000995398 -0.00386825 -0.0481126 0.00530285 -0.00619351 -0.047827 
0.0095962 -0.00518641 -0.0471554 0.0133452 -0.00439413 -0.0462514 -0.0126394 -0.00346898 -0.046458 
-0.00929626 -0.00224693 -0.0472112 -0.00601861 -0.0037255 -0.0477761 0.00696715 -0.00241169 -0.0476588 
-0.0136557 6.2101e-06 -0.0461374 -0.0112149 -0.00100178 -0.0459096 -0.0103454 0.00123038 -0.0470239 
-0.00153975 -0.0012144 -0.0481397 0.00313115 -0.000917821 -0.0480686 0.00602264 0.00126923 -0.0477539 
0.00966844 7.20565e-05 -0.0471395 0.0140986 -0.000733071 -0.0460154 -0.014427 0.00355201 -0.0459269 
-0.00676687 0.00129928 -0.0477034 -0.0041295 0.00384895 -0.0479073 -0.000826993 0.00235625 -0.0481293 
0.00324329 0.00377588 -0.0480528 0.0101083 0.00368525 -0.0470512 0.0143589 0.00344565 -0.0459309 
-0.0107933 0.0048382 -0.046937 -0.0072608 0.00619598 -0.0476008 -0.00122562 0.00603282 -0.0481309 
0.00671659 0.00484262 -0.0476733 -0.0139188 0.00714463 -0.0460685 -0.0106128 0.00859827 -0.0469797 
-0.00445746 0.00854259 -0.0479176 0.00407932 0.00733321 -0.0479671 0.00880792 0.0070438 -0.0483389 
-0.0160493 0.00913748 -0.0463886 -0.0137243 0.0107698 -0.0461164 -0.00749682 0.0105056 -0.0475515 
-0.00143162 0.0105505 -0.0481314 0.00221265 0.0104542 -0.0480964 0.00731964 0.00906169 -0.0475052 
0.0113979 0.0102881 -0.0467764 -0.0105706 0.0123647 -0.0469753 -0.00446187 0.0125578 -0.0479235 
0.00506113 0.0127268 -0.0478594 0.0086712 0.0126495 -0.0473487 0.0120611 0.0138604 -0.046651 
-0.0136771 0.0144013 -0.0461542 -0.0105098 0.0160031 -0.04698 -0.00697639 0.0154577 -0.0476541 
-0.00339556 0.0160322 -0.0480112 -3.83325e-05 0.0142135 -0.0481222 0.00334154 0.0159226 -0.0480461 
0.00722823 0.0160466 -0.0476207 -0.0134279 0.0180324 -0.0462114 -0.000863518 0.0186355 -0.0481324 
0.00519152 0.019059 -0.0478455 0.0110803 0.0174338 -0.0468472 0.0145833 0.0175316 -0.0458481 
-0.0140408 0.0216248 -0.0460303 -0.0103074 0.0197133 -0.0470387 -0.00418552 0.0201067 -0.0479499 
0.00203061 0.0208304 -0.0481118 0.0109568 0.0210753 -0.0468817 0.0145083 0.0215555 -0.0458786 
[...]
POINT_DATA 21992
FIELD FieldData 6
id 1 21992 int
19841 19127 12012 12863 13632 8920 12109 16658 19856 
10803 19374 20095 18044 16405 15999 16924 17989 9557 
14065 15610 10369 9667 4140 1308 13401 2989 1411 
2284 541 5759 4121 5950 1016 792 354 3639 
6110 15488 626 6734 5884 5456 4110 3740 4970 
6385 5171 4691 1222 6804 6828 1506 4393 4613 
2025 4214 4159 722 5901 6194 5773 4885 1648 
6843 7038 3319 19296 5649 14650 2028 1596 4726 
4295 2911 2788 1220 21804 5699 6780 4240 7224 
7563 5819 1221 2189 18924 3524 5452 2644 2000 
3240 2481 4662 466 1335 6568 6305 7451 9214 
2489 3165 6224 1404 5702 5944 6760 6421 2491 
7645 4202 10344 2699 4171 5271 378 6570 1993 
19027 1069 4103 5628 15798 4736 7541 1148 6103 
1190 6243 7225 3913 4845 319 6764 21029 1702 
4203 4979 4487 7071 3103 524 3557 2935 4805 
2271 6300 3156 3174 4233 321 602 4592 1696 
5409 3228 4503 3890 7415 6001 2315 7381 6980 
5261 7570 7743 1273 583 4702 6695 3068 14056 
1323 2909 7307 2270 2714 224 537 1191 171 
4650 5072 8223 1468 3535 6244 2791 5889 1795 
1808 4033 2569 6789 5334 970 5275 7268 1555 
2197 5898 7706 6399 1979 2143 4877 6559 1002 
5943 5991 19358 716 1549 5096 2738 2380 6240 
1613 2011 4119 5779 3715 421 2320 448 269 
6086 3869 2508 6478 6651 1420 1789 10352 5317 
2468 26 2342 3125 2872 5578 7547 4187 3786 
3621 9606 6407 3876 187 7272 6005 3996 6336 
4303 1557 6423 4475 1680 7606 2459 2027 3546 
6333 5794 2876 6902 1559 15775 20651 5713 3616 
1510 4090 5173 1940 7631 3548 7428 3567 2659 
3992 381 1383 3999 1826 1157 5547 1787 2977 
1483 1577 743 2893 1375 2622 3522 349 5916 
4084 1104 6701 6046 3579 5289 3799 7580 7701 
7671 2965 5717 1866 3267 5067 1974 1523 1658 
14185 2792 5502 2054 5310 344 21693 215 2148 
335 4052 18460 5569 3891 2341 496 2164 1096 
6148 5168 5785 5886 6381 7766 3998 2404 9909 
2405 4176 605 699 4981 2846 4865 3459 1936 
2673 4312 6313 2302 2402 1434 1476 5654 2131 
4799 3392 3377 7266 5695 3036 1389 1082 2100 
5341 6952 7663 6199 4608 9262 1529 881 4361 
3877 1734 9097 296 109 14634 6232 3527 6343 
6862 6102 1863 3155 4080 6053 12110 285 2618 
7037 1821 2447 3075 5781 20617 3274 3286 4165 
21778 7373 1465 7703 1455 3636 5831 7752 3694 
5768 4376 5135 20907 3725 2204 7079 6553 6743 
7400 2084 6124 6605 3658 2775 2519 5843 5536 
5002 2354 3920 5742 5372 5643 4411 5548 4540 
813 4730 2411 6445 7012 7105 21196 1634 4962 
3615 4960 1033 86 1772 6324 13476 6350 1304 
1895 7528 2634 3359 290 6931 4433 2566 5560 
6990 19342 4661 4277 3296 4511 4714 5286 6368 
12106 7301 5344 6755 7008 3001 7771 69 1931 
4673 6265 2012 4505 1767 7640 5824 6689 7129 
5728 9095 1695 3314 5954 796 799 7778 7209 
2307 1271 6656 1232 20943 1763 13974 5694 7170 
5885 5980 7028 5833 5087 3032 6549 18789 7732 
5250 7425 7491 7397 6052 18170 2590 3577 2811 
4191 5761 6810 2538 4466 1760 6446 4760 2510 
5629 4950 624 3002 3961 7566 7077 1073 3172 
5303 3760 773 2855 4676 3950 5383 2163 5801 
5063 8383 15905 7375 3371 4895 549 2779 11078 
4098 6030 12561 18609 6168 11538 3221 1491 2362 
618 11152 449 2628 3099 5030 11682 5420 3003 
5500 2273 2289 3705 724 2501 6765 4468 7482 
4820 5853 6335 6171 6286 5049 11275 4403 3888 
6170 4851 1816 756 18651 7282 15237 413 2874 
5240 4079 3177 418 3632 5541 3755 542 7457 
6857 4076 18307 1798 7169 7669 688 19637 959 
3907 107 3126 5800 1391 12014 4392 4016 1027 
1332 6015 3594 3991 2119 18515 10142 17903 4632 
3117 4112 10128 5939 3574 6732 15853 10913 1374 
17431 426 4184 18939 1637 5524 4368 4434 1687 
18274 11584 6757 2904 4622 4057 3326 2595 1250 
11897 13573 7497 19219 1828 1392 7264 2397 416 
1645 5080 2790 3949 5446 1853 2487 4886 4352 
5751 6528 6596 10282 8931 4709 4572 169 3214 
16034 1594 3251 2865 3365 2953 5573 1932 21275 
823 4727 295 4930 2190 740 5210 2280 4692 
5105 7367 510 8631 3268 4122 6136 4281 1908 
19464 17834 288 2086 5170 420 954 1028 3901 
5156 11069 21162 5148 3510 2979 20961 7929 19408 
2192 1552 1415 4055 1540 4823 21845 996 18600 
12872 4579 4229 7447 789 7572 2695 2198 359 
10400 8240 3091 480 98 20018 6998 3364 2108 
9451 3660 17654 1614 346 7391 7761 6916 776 
21278 13800 1588 5129 5018 2676 77 827 13838 
194 4915 3390 1454 4107 7452 6770 5976 4221 
9350 1040 2532 4328 6424 4751 4292 781 255 
6837 865 1423 270 4354 862 16108 7489 6911 
1440 2399 1053 5575 15804 815 2710 7436 4464 
3815 6613 4593 2660 6038 2921 7540 2940 7125 
5776 21474 5863 1675 4086 985 3464 4688 3865 
20947 4648 2530 5929 3483 3485 6230 1072 3288 
7084 3016 11444 890 2959 4977 4189 7389 1492 
3487 3362 5219 19179 5664 3098 4546 4639 339 
5374 4800 4556 2281 7608 5594 2155 6720 7594 
5661 124 2332 5659 6026 6593 3620 11144 2675 
391 1022 3506 9857 100 1165 7613 864 16243 
4391 1012 7070 6668 6959 9958 12136 9827 2363 
7354 7621 6325 2541 7150 5213 3909 11524 13533 
741 983 6417 6996 761 2960 5016 1656 6047 
2115 110 6454 5760 629 271 4344 2391 3722 
11188 1129 20836 8533 5356 280 4390 3580 5338 
5570 18628 13034 2214 19959 1394 1989 7260 6510 
7562 4755 11513 16918 3957 6361 1764 3836 5012 
798 532 5526 1252 6733 2608 7340 1994 6116 
17910 6118 4813 1193 6410 6589 18581 1876 3969 
256 4869 1321 6010 19766 4255 7579 21266 451 
7665 6966 5439 1609 3030 501 2752 18046 11212 
2735 19887 4937 1382 4791 5982 5315 5433 17544 
14381 105 7014 4063 6506 6472 7717 7025 11420 
11861 1893 7657 21599 2669 4100 1209 6007 1287 
14828 12853 5891 9142 5971 293 3713 1470 3389 
1385 7160 4827 7792 3505 5185 1268 1693 3748 
7487 10914 4604 7114 4256 2505 5436 7101 1431 
2617 12602 407 5337 5190 5326 6302 7318 1842 
5125 4707 6149 5799 4759 7607 3109 7192 7602 
4908 3175 7430 7502 7442 10535 281 3928 4708 
4765 5736 4952 2351 17911 452 5868 566 6923 
5167 6353 4108 1357 2536 5249 5888 653 713 
4870 6523 591 8272 14776 6597 7569 3417 4212 
7620 4806 6756 1947 5689 3366 2102 4656 6428 
7508 3973 6419 3896 6508 6027 3561 495 6511 
4980 6127 2550 5095 896 5008 788 3346 7303 
6818 2830 7039 5423 17135 5048 2174 7538 3158 
2803 3000 515 16116 16257 8822 5028 17964 6187 
400 7507 4316 3754 4810 15206 1430 707 18591 
11005 3684 1058 6425 1074 4012 785 21387 5715 
4575 12227 12194 17814 992 1482 7762 9134 1841 
845 3411 7680 8777 9927 6662 7719 3370 5216 
1914 10297 10802 6706 17360 1449 3088 3401 2795 
2113 17177 17026 3129 1667 5583 2356 1128 262 
320 2560 520 4239 5473 1704 16743 5136 3382 
7424 1861 3330 11490 6439 8718 14866 19874 42 
13139 3272 20001 21075 5989 819 5624 6317 2439 
7500 13732 3805 2253 17309 3284 3354 8719 7234 
1922 7026 5242 17421 6957 931 16532 7739 3216 
311 6450 10698 13302 4188 3372 14595 4301 13087 
3934 14239 5232 6769 689 1217 20486 4781 4007 
4249 19895 15282 4150 10823 3792 1211 6901 6111 
5485 20730 6254 8795 5440 2035 21244 15808 8960 
8989 7437 1897 4889 4612 5949 5778 2657 18174 
11826 7622 21049 9447 15059 3089 1930 11114 4151 
16259 20420 5576 3670 7756 1677 4588 13292 7335 
362 16221 134 1525 17867 6209 3809 6173 2854 
9548 5178 1103 775 21575 4659 2 17170 7003 
5162 14440 12764 7744 2913 9051 15964 560 2239 
4722 6704 5077 1408 4890 18091 257 15368 6925 
7529 2210 5730 20169 259 4738 2760 10292 16009 
7919 6731 8741 8744 5514 6629 6600 657 17099 
3243 5280 3784 2690 6098 12707 5696 601 635 
2946 633 2458 102 337 3642 7287 3303 5592 
20927 5616 3439 19226 14632 6876 4412 2831 885 
457 15817 155 14192 10410 2008 419 3304 5897 
15089 3053 2693 4467 1831 4922 18357 19016 1524 
9683 7684 2039 6664 388 3606 1177 4252 19368 
4761 2873 7954 10301 3338 5060 3773 3181 4355 
5 6394 20825 8105 3488 16341 9901 16340 14859 
9601 6903 5973 5523 18367 21649 15068 5476 17820 
15907 14478 3534 5844 10235 214 2048 3198 338 
2211 2504 18559 10024 9093 1925 3582 17552 3850 
7782 7103 6277 17892 16284 9966 21615 1504 11616 
14252 13150 8772 11256 20481 20869 17921 12407 3838 
8506 16476 5128 7178 3115 5529 7629 1850 3816 
4649 21257 6331 1488 6403 16847 2637 20636 8220 
1227 1728 8799 3212 5298 192 7548 3600 1615 
5775 176 5006 10583 3178 14436 9787 14653 6164 
20479 442 6812 5719 15553 17001 9347 16339 7309 
10962 13380 17975 16754 511 13235 7926 3395 122 
4166 19808 1625 73 11191 6580 5110 11599 7024 
4067 5001 5948 15162 2886 4283 2820 2316 1123 
2449 4822 1014 7188 4346 7480 1992 6056 18797 
1248 13939 14703 4414 6355 2766 1626 516 5509 
6044 5733 7273 6404 2185 1059 1546 3861 4343 
11506 458 342 4458 870 2384 383 3056 17304 
21036 3387 1579 956 1553 1023 3163 4306 1817 
1746 994 1926 3233 2083 1497 13276 2982 8717 
12277 2577 478 18659 7153 2906 871 1985 1879 
9366 1187 1322 810 687 4457 3009 5890 18662 
16030 4898 7676 5969 18203 19065 2455 1500 2485 
1701 2469 17822 1668 1314 2051 5823 4037 3293 
682 7232 6872 3677 6960 7536 16102 17995 3563 
10020 161 17406 4072 2465 12191 2023 29 2606 
6660 5549 18642 18076 2066 2425 4488 1886 7724 
40 1025 1576 19078 5510 10084 15546 12300 10139 
2945 7458 312 5584 4987 14395 1484 1019 3367 
4145 7350 5600 11104 685 4520 5020 14481 11106 
11937 453 4929 5772 4903 5197 3656 1712 4792 
3915 12159 7325 11712 4695 20034 1178 6218 1149 
17868 18965 13167 5187 12260 5104 4836 6066 6235 
758 6322 11482 21822 5260 1169 13261 15594 6231 
15802 11117 16420 7365 2576 17566 7546 5866 774 
8784 11377 12356 14884 5790 18655 10615 19955 21042 
976 14534 4674 873 2986 9770 20670 20919 1880 
5724 19354 3608 17622 7284 6084 4273 7687 10852 
19146 19095 11547 10031 6272 19619 766 11335 20769 
19455 16939 5636 4293 7682 1519 12487 4220 6669 
4512 1310 16927 10908 19902 4737 20216 11173 5747 
10782 3953 10192 10893 12413 7516 18883 19908 20567 
6357 7327 5177 4114 7565 10763 379 3361 16687 
4954 7035 21618 6532 4991 1790 14037 749 14054 
3306 18200 18202 4284 16 7317 5389 1409 2839 
8867 5935 19275 5267 9755 694 3742 7414 2428 
5336 4502 21401 6062 17319 9286 2926 19367 21621 
11118 6875 19971 334 920 1384 3248 1094 20067 
1063 12475 11379 15637 7134 4778 4341 3726 2556 
355 16251 13890 5278 4754 3113 21608 6323 1933 
7757 6914 19593 19731 4465 2711 6938 6700 15469 
4154 7745 6977 3104 5686 16104 7492 1131 5707 
951 4931 8977 5722 6443 6184 6766 2726 3647 
154 6673 5397 4158 7213 5988 979 16533 3279 
5655 5941 1419 446 2233 7469 570 4729 6352 
3360 5859 5264 5207 361 2344 6179 906 3523 
5475 17152 142 4388 3638 16846 7426 843 23 
5934 5447 897 3536 2021 3480 709 14491 1184 
2613 6319 5883 5703 6562 3931 6462 21429 7007 
5301 3701 6043 4290 894 2495 3720 6939 5805 
1805 7253 6150 982 7711 5621 2860 5411 2222 
4743 7673 1682 12275 733 4911 1743 4004 14370 
4315 11202 6448 5710 661 7466 559 5454 7291 
7774 9265 20286 6617 17242 2480 7295 3275 19036 
8725 20627 18473 18111 2224 9445 19079 10577 16239 
6711 19039 11927 21895 18757 5224 6683 16812 1216 
11802 5047 8292 8882 11304 513 10160 8802 3614 
6380 4371 6290 7433 4235 16810 6255 5959 13688 
2769 2117 8328 20276 12350 8145 8137 4871 18468 
6013 958 12820 2889 9171 18262 21056 1784 14110 
5635 20142 21539 4024 19998 21945 7715 3453 6245 
4666 6301 5477 21757 6492 21341 12209 20631 19600 
7720 17251 19559 8507 4095 21535 6029 7202 2614 
13140 9443 21320 14133 8713 20358 12620 16051 3375 
9761 11438 9247 16412 8469 19686 8396 7577 2511 
1867 15438 276 2310 6576 1245 17972 7943 7005 
17004 21408 21481 17136 10809 1590 19277 20059 3612 
7753 15635 5936 14367 5589 4043 1646 5015 20517 
20472 16370 13123 12229 18874 18391 825 18273 18850 
7262 20458 5318 6826 2883 2810 11255 7175 16425 
13841 8716 7736 12091 19657 3007 7990 20891 4113 
7439 3987 2440 14039 10839 2466 6556 17952 17816 
15286 10663 7190 3059 4287 5623 4762 11060 5202 
4335 3229 13519 14215 3323 2589 20206 14334 14518 
13594 2166 15828 6000 3380 4382 15207 15061 5662 
17951 10610 14971 6948 17293 5254 10561 14519 183 
9976 643 7174 5841 1292 4758 11736 18587 1339 
16644 9502 13342 2513 17367 9830 15217 12324 3665 
12446 1329 377 3552 2018 6251 6312 2969 18088 
20260 4715 15780 17954 9457 20267 21360 14659 2750 
1302 125 13657 5692 1610 20767 8310 1807 19449 
1565 7316 9139 19262 6212 19529 2858 13728 3532 
10551 20937 11811 13948 17845 13734 9400 17501 9348 
16037 9295 2209 16112 437 4182 5605 2736 6477 
7121 4222 6936 18417 10582 5424 20744 21130 10223 
2161 1017 7860 9660 3945 7581 2144 4091 4955 
9749 10627 7760 20439 966 21662 15700 11495 12182 
20765 10430 4169 21775 993 7229 21554 16174 16587 
6390 18758 9126 11242 15198 19899 10103 14495 16585 
13908 7661 4211 5276 1750 2944 4054 3986 20232 
3874 17448 10884 15783 7481 8531 21139 19267 15256 
3187 15586 7441 1327 4477 777 1537 19900 3994 
4863 14220 6189 13710 13548 18144 10319 6442 4153 
4513 1960 7571 20844 1450 12636 2328 1228 19235 
2907 7339 7591 1168 10743 15287 3497 7940 2111 
8050 10293 15471 3918 21869 6942 21642 3814 1303 
12068 17887 4232 12667 21400 14138 1443 72 15503 
17489 18905 2020 4163 1197 3345 12599 1694 6418 
2871 21338 10902 6267 17053 8676 8690 21808 16629 
21189 15889 3967 2454 4734 1205 1729 12021 4081 
5895 12986 15722 9968 15919 7418 18944 15106 17713 
17298 12005 14305 11475 17087 986 3904 6726 928 
2542 4801 14014 9938 20320 548 8318 2742 11563 
18634 4198 14840 8167 10726 126 2932 6834 13794 
4310 9658 5462 4824 18224 9213 21160 12850 3383 
12468 18868 20263 10741 12568 228 9872 2639 5566 
6105 729 13717 20792 15100 2567 8746 5369 655 
2745 7652 5388 974 19369 21674 10837 8512 7891 
14205 14241 7677 17702 7936 485 13104 797 867 
18127 4587 12539 1098 11040 10480 10135 4213 12635 
16492 20890 16138 3525 1713 4398 2602 15376 2794 
459 6838 10725 20128 18199 3409 12502 14432 19401 
6910 640 16857 3652 20 5917 5873 7009 9364 
9582 13731 1564 12768 8748 18447 6364 8466 10490 
5828 1723 7765 3427 1679 11946 8649 10609 5698 
14707 12140 18289 8246 292 1761 5306 2603 3448 
771 1175 7047 4201 425 11879 17018 18090 14992 
18213 2390 3153 3340 1913 2213 6647 2340 4787 
14287 4073 921 2721 4274 13298 1418 20265 9892 
2130 6048 7694 7552 3010 9266 594 2687 5373 
15917 6391 5203 3972 6402 19186 4047 6176 3054 
18435 13411 19332 12852 12934 3203 5711 10434 1247 
2096 6522 3254 4653 760 21228 2343 19100 2664 
19943 7755 3318 20760 5670 7032 4262 2290 17028 
12694 6947 7463 15161 9716 3611 7809 18691 21246 
10429 14489 11299 1133 162 4138 18834 4997 3154 
9215 7362 7636 21471 8075 20341 17317 13520 17420 
19446 20659 5247 1502 18104 6692 6389 3804 7626 
1824 115 20887 11757 16071 11348 15444 10749 12184 
10047 2498 11589 2203 146 7319 20654 4561 9597 
3756 2264 8108 3438 14655 19270 21247 21357 14019 
13774 17556 10143 5869 20316 20009 10238 9483 20140 
8541 15451 10862 409 4021 20063 12789 19399 21287 
6928 4369 20729 13256 16230 16697 16531 9248 9913 
14638 20397 720 8889 2920 6792 2527 19137 3997 
6551 7521 8000 15413 9546 8021 9271 18806 10972 
3292 13398 7967 8607 1754 590 10080 3719 6703 
6188 16389 6379 20510 6649 14607 12630 341 12572 
13891 12416 5930 2526 12975 13876 18946 7596 3543 
6050 249 6993 11071 2419 21996 15975 4553 9098 
20419 3234 18855 7098 6263 6599 4793 646 12075 
4135 14321 1371 4302 13465 5382 20228 12814 4068 
1414 17065 1344 21940 597 13241 12290 17797 21195 
12955 14853 21672 18521 3671 6785 5176 21146 4685 
2075 14258 5678 17339 6185 9300 16301 15800 16606 
18286 5034 19158 10423 3975 1942 13329 872 7380 
2509 1973 16484 15771 14179 15302 15531 6220 8261 
13000 8700 20922 16761 20103 15406 18942 7141 4118 
3435 10752 5266 4589 6717 9252 3490 12979 2806 
14461 18743 17045 17370 20584 3176 20339 10100 15846 
11959 6178 4564 5931 3143 157 744 5499 5466 
18791 16865 14867 5108 7164 20217 4614 1898 8 
3133 4003 4551 18725 14673 15996 19082 8633 21124 
20575 8543 12207 14751 16572 1606 19028 15077 5758 
3610 4943 15777 4647 8239 14777 12855 19724 15124 
10747 1755 8417 13779 16083 9227 21846 15251 6459 
14664 6737 2047 6884 588 14317 5609 1984 8477 
16031 9651 1297 20168 22000 1364 13230 2414 21253 
1961 12676 5987 6406 4386 14905 14942 4837 21164 
16966 20982 3697 19311 17945 20135 10634 3184 16362 
15844 12108 21213 14516 10133 1170 1039 6967 488 
21710 5457 17373 6808 15384 11798 13279 21569 13378 
21855 17229 1369 20068 6165 12757 4065 11154 16402 
6281 5861 5371 1591 2262 1214 294 412 14585 
15285 5587 18740 4842 7027 656 5120 4336 4618 
16369 10677 17817 19494 9146 10009 21515 17254 855 
4655 6917 1531 4953 20735 20450 14455 19233 15564 
1011 15924 18654 7078 15098 9124 13220 2366 500 
6202 4809 6538 21118 4257 16842 4124 14266 1739 
4660 5937 995 7564 6670 6264 6479 1627 8499 
5467 1769 5038 5749 15125 19370 6621 1681 5091 
16904 5818 13781 17693 2818 18667 7605 4616 7575 
7610 2097 21806 7 16076 363 8039 8378 4817 
1215 3984 3473 19623 5146 3989 5685 3450 6375 
8262 7315 5852 11446 3618 787 10005 6989 7786 
6748 5887 7044 1929 5312 2580 3964 5180 3955 
6566 3925 2956 3027 6595 12424 506 333 20015 
946 677 3378 888 6707 3039 2325 5225 4830 
6550 1212 1372 6019 4625 13420 5385 879 880 
5740 6247 1262 4161 6012 6306 607 6429 734 
7461 4675 1759 4718 384 3004 7427 20129 6114 
4603 3271 5479 7011 2230 18895 1049 14336 10579 
6871 8376 9628 5398 5633 3072 6308 1151 6045 
13455 6735 5437 5041 19442 8549 1636 9353 7483 
4573 5777 4595 11564 10777 7049 8937 16992 3478 
16191 13525 13685 19094 13651 14799 8635 91 527 
1873 10709 5766 4115 17752 16013 13131 19432 15683 
19286 20875 17016 6918 21654 7844 1461 611 11523 
2631 3461 2593 4550 17810 4899 13370 21215 4483 
17563 21030 12699 19331 555 18157 16436 16741 12535 
20939 5358 15458 4438 7874 7261 4407 18346 4545 
12488 16876 18534 16709 16327 13141 18583 10798 19558 
18507 15965 19243 10073 18816 20673 9419 20508 18739 
17468 3751 968 531 19306 145 1196 18038 10840 
10053 9428 14379 11228 10994 8435 19387 11618 3071 
17272 18184 18166 14163 16787 12389 20482 4157 13002 
5788 1854 5691 11760 1352 6758 17685 18058 17669 
19009 10515 11885 17002 10975 20088 9734 12479 13213 
18688 17149 20356 5850 7588 1997 7454 5415 15580 
12467 7018 14348 9703 17350 12019 17195 11970 8880 
20416 13423 4304 18403 20308 16573 15647 14102 18051 
2836 7959 8201 4228 6886 2649 297 21103 10705 
4530 10563 21516 6040 8888 13854 20516 9867 13783 
21315 10427 20242 9212 14419 14483 18952 2887 9435 
8368 6106 14609 3641 19093 4311 1413 2278 4811 
9207 11833 16884 15526 3309 17305 17393 20164 21861 
15906 17214 3700 20864 18808 19211 10449 15888 12474 
15833 17341 16344 6122 15140 20434 17699 17075 17155 
2394 666 475 11806 5881 15156 10409 13393 8268 
9446 9620 16186 15585 7909 13780 19273 12483 17034 
16171 8803 10901 12459 7456 17204 7797 18303 13878 
15764 2492 5157 2930 2802 4531 11366 15862 18563 
8149 2479 13542 11929 13648 19842 20966 138 6633 
21348 16805 2172 11800 2627 2472 6131 3012 18024 
18265 6631 20066 18490 20791 2376 13334 15470 691 
10010 9574 9699 7956 7211 12403 19171 21462 16858 
5307 6521 3048 4450 7488 15278 8620 4541 7920 
10134 12953 8228 7518 12457 3723 19649 18008 16908 
12035 12500 16826 7123 2999 4769 5471 20073 676 
14059 1425 15064 859 1231 3520 19789 8900 10855 
4288 18775 10874 21680 5441 12533 16456 5362 2762 
2295 3939 12501 18647 14529 12236 14104 14006 18116 
12482 14346 8054 14044 18495 16568 21390 10540 18704 
15309 12917 10486 20045 13158 14411 9170 278 13098 
571 2231 14195 5419 5874 11344 6745 12495 15065 
19511 9757 11247 20704 21797 16616 11678 2507 19859 
13403 1188 5669 12974 2633 7417 12785 9728 2032 
4104 978 2065 15760 5746 8914 16293 13683 12617 
10088 16241 18622 15191 14441 16496 21115 19599 2050 
18613 13389 11448 5858 4998 924 6626 7313 1756 
17793 10046 16285 4926 20449 16159 18096 9568 12952 
12695 19719 9294 10302 8106 18018 13278 21183 20775 
8516 1279 12578 1628 6841 3097 6183 6420 17378 
17516 11957 10920 21630 540 17047 8834 12193 11858 
17337 21178 9980 739 18380 4133 1444 6979 6941 
3716 8121 20083 16608 6049 20324 12081 12450 13299 
18295 15343 10171 4852 12506 21354 21917 19759 12545 
2819 13906 4914 229 7238 21794 3141 17257 12598 
9064 11203 9467 8038 10524 12436 20960 12605 10695 
21683 3492 19964 5364 9519 10426 10489 20764 4261 
2764 4042 6937 6895 17043 19337 3469 15079 7748 
19155 9835 7865 18820 225 20194 16500 4646 10933 
16981 17389 19855 10799 20304 18480 3791 2377 2026 
2446 4142 17897 3929 14160 14695 17025 10544 18069 
9995 14291 13093 1515 15639 19892 20917 10633 8320 