# vtk DataFile Version 4.2
Generated by LIGGGHTS
ASCII
DATASET POLYDATA
POINTS 10000 float
-0.0189508 0.000929189 -0.0364643 -0.0184603 0.00364532 -0.0367285 -0.0191284 0.00527936 -0.036377 
-0.0178735 0.00640282 -0.0370182 -0.0176927 0.00872808 -0.0370955 -0.0190418 0.00975348 -0.0364309 
-0.0187477 0.0146857 -0.0365787 -0.0177762 0.0165567 -0.0370599 -0.0190316 0.0179774 -0.0364306 
-0.0205303 0.000921822 -0.0356078 -0.0213773 0.00256398 -0.0351094 -0.0197491 0.00250703 -0.0360468 
-0.0180058 0.00225275 -0.0356929 -0.0205517 0.00418738 -0.0355917 -0.0211932 0.00633605 -0.0352135 
-0.0179755 0.00618287 -0.0352454 -0.0195673 0.00700872 -0.0361436 -0.020599 0.0095346 -0.0355727 
-0.0208002 0.0113183 -0.035452 -0.0192237 0.0115381 -0.0363283 -0.0197006 0.0132527 -0.0360746 
-0.0180019 0.0126884 -0.0356802 -0.020499 0.0148022 -0.0356225 -0.0182217 0.0159581 -0.0354259 
-0.019862 0.0164458 -0.0359821 -0.0210054 0.0176688 -0.0353254 -0.0201873 0.0192035 -0.0358123 
-0.0220694 0.000895432 -0.0346816 -0.0184694 0.000897573 -0.0346071 -0.0198608 0.0020015 -0.0343261 
-0.0233527 0.0037635 -0.0338271 -0.0190513 0.00358839 -0.0347917 -0.0220937 0.00475833 -0.0346567 
-0.0196901 0.00548376 -0.0346803 -0.0226564 0.00689327 -0.0342972 -0.0199913 0.00741996 -0.034416 
-0.0215427 0.00811349 -0.0350032 -0.0184044 0.00791706 -0.0351151 -0.0178204 0.00961202 -0.035126 
-0.0220283 0.0102066 -0.0346972 -0.0193371 0.0104595 -0.034694 -0.022206 0.0120274 -0.0345927 
-0.0194984 0.0122396 -0.0346135 -0.0178957 0.0114724 -0.0343272 -0.0217482 0.0137373 -0.0348845 
-0.0193262 0.0140345 -0.0344958 -0.0229725 0.0151179 -0.0340854 -0.0216403 0.0160201 -0.0349407 
-0.0199843 0.016033 -0.0342357 -0.0225237 0.0174862 -0.0343774 -0.018879 0.0174116 -0.0346 
-0.0230257 0.0191912 -0.034045 -0.0212609 0.0192035 -0.034386 -0.0189721 0.0192036 -0.0344944 
-0.0250916 0.000903265 -0.032552 -0.0235583 0.000891466 -0.0336867 -0.0208768 0.000897815 -0.0333357 
-0.0243188 0.00241886 -0.0331327 -0.0223586 0.00228747 -0.0335946 -0.0188047 0.00259504 -0.0329959 
-0.0208908 0.00371336 -0.0338238 -0.0247782 0.00412243 -0.0327916 -0.019431 0.00427797 -0.0329475 
-0.0181065 0.00489326 -0.0339947 -0.0237199 0.00564429 -0.0335719 -0.021694 0.00580336 -0.0332473 
-0.0199377 0.00600028 -0.0329039 -0.0248217 0.00730489 -0.0327641 -0.0185011 0.00677937 -0.0336426 
-0.0235483 0.00832414 -0.0336832 -0.0216461 0.00788538 -0.03318 -0.0250112 0.00943559 -0.0326182 
-0.0207116 0.00927697 -0.0338143 -0.0189476 0.00897205 -0.0337692 -0.0235661 0.0101064 -0.0334512 
-0.0206781 0.0110719 -0.0336634 -0.0190659 0.0106691 -0.0329284 -0.0238613 0.0118778 -0.0334685 
-0.0221231 0.0117858 -0.0328265 -0.0251619 0.0127619 -0.0324978 -0.0229156 0.0134008 -0.0335614 
-0.0208428 0.0128622 -0.033607 -0.0191162 0.0126575 -0.0329138 -0.024405 0.0142823 -0.0330802 
-0.0213527 0.0146961 -0.0334264 -0.0176074 0.0138293 -0.0340071 -0.0183609 0.0154495 -0.0337075 
-0.0240615 0.0163218 -0.0333223 -0.0185202 0.0170509 -0.0328622 -0.0218337 0.0175627 -0.0327178 
-0.0203129 0.0178836 -0.0336247 -0.0244944 0.0189899 -0.0330065 -0.026568 0.00132112 -0.0313592 
-0.0233179 0.00119538 -0.0319456 -0.0215527 0.000983241 -0.0316731 -0.01924 0.000898789 -0.0325913 
-0.0243914 0.00249723 -0.0313445 -0.0210039 0.00255682 -0.0324539 -0.0175114 0.00235494 -0.0317712 
-0.0260608 0.00299929 -0.0317817 -0.0227491 0.00289865 -0.0319539 -0.0260955 0.00479618 -0.0317617 
-0.0229159 0.00464377 -0.0323222 -0.0210918 0.00447048 -0.0322075 -0.0245595 0.00571121 -0.0319804 
-0.0182714 0.00560207 -0.0323098 -0.0262557 0.00657971 -0.0316195 -0.0230389 0.00685405 -0.0324375 
-0.0207639 0.00705401 -0.031711 -0.0189923 0.00721255 -0.0319723 -0.0261393 0.00837014 -0.0317177 
-0.0237181 0.00842252 -0.031899 -0.0219627 0.00854781 -0.0315439 -0.0201284 0.00864521 -0.0322434 
-0.0216281 0.010039 -0.0324834 -0.0182898 0.00885695 -0.0321015 -0.0246406 0.011101 -0.0320483 
-0.0231985 0.0101155 -0.0316226 -0.0262812 0.011685 -0.0315982 -0.0202882 0.0115935 -0.0319863 
-0.0234342 0.012528 -0.0318516 -0.0217591 0.0134156 -0.0321671 -0.0250198 0.0142272 -0.0313954 
-0.0232494 0.0143104 -0.0317145 -0.0197821 0.0143198 -0.0326417 -0.0180206 0.0144104 -0.0322818 
-0.025417 0.015729 -0.0323042 -0.0225524 0.0158171 -0.0324831 -0.0207781 0.0161131 -0.0324948 
-0.0266958 0.0175785 -0.0312218 -0.0253259 0.0175232 -0.032379 -0.023546 0.0175851 -0.0321565 
-0.0199402 0.0175775 -0.0318967 -0.0259251 0.0191982 -0.0318931 -0.0227845 0.0192058 -0.0322614 
-0.0210283 0.0192029 -0.0326144 -0.0192075 0.0189886 -0.0327319 -0.0279996 0.00101694 -0.0300936 
-0.0249275 0.0008915 -0.0307614 -0.0232111 0.00131627 -0.0301671 -0.019917 0.00103928 -0.0309281 
-0.0274299 0.00273843 -0.0306084 -0.0216064 0.00254102 -0.0306134 -0.0261125 0.00393695 -0.0301907 
-0.0198072 0.00295816 -0.0311849 -0.0183863 0.00400152 -0.0315131 -0.027428 0.00514705 -0.030612 
-0.0245141 0.0042385 -0.0309499 -0.0226695 0.00435739 -0.030568 -0.0208841 0.00419075 -0.0304487 
-0.0255775 0.00565507 -0.0302318 -0.0237869 0.00576526 -0.0303591 -0.0220433 0.00585788 -0.0313291 
-0.0197056 0.00528257 -0.0312658 -0.017467 0.00606579 -0.0307731 -0.0274964 0.00688644 -0.0301751 
-0.0247052 0.00722349 -0.0309737 -0.0229321 0.007308 -0.0306954 -0.0274847 0.00863793 -0.0305629 
-0.0196469 0.00846447 -0.0305253 -0.0178119 0.00789084 -0.030667 -0.0257357 0.0100501 -0.0310866 
-0.0243948 0.00908378 -0.0303773 -0.0208534 0.00976334 -0.0308286 -0.0269805 0.0110521 -0.0300697 
-0.0240737 0.0108441 -0.0302385 -0.0218469 0.0112215 -0.0311543 -0.0191451 0.0101832 -0.0311883 
-0.0248447 0.0123807 -0.0307434 -0.0273308 0.0128341 -0.0306966 -0.0209327 0.0127088 -0.0307313 
-0.0193112 0.0132892 -0.0312474 -0.0175294 0.0130437 -0.0312284 -0.0268239 0.0145561 -0.031147 
-0.0209217 0.0147611 -0.0313238 -0.0183716 0.0145888 -0.0304293 -0.0276834 0.01601 -0.0303837 
-0.0239714 0.0160665 -0.0312952 -0.0224194 0.0154626 -0.0306277 -0.0193329 0.0156568 -0.0315259 
-0.0259046 0.016085 -0.0306169 -0.0211462 0.0167093 -0.0308417 -0.017591 0.0160994 -0.0315982 
-0.0248061 0.0175273 -0.0306644 -0.0229386 0.0173576 -0.0304822 -0.0216352 0.018409 -0.0311305 
-0.0183705 0.0178411 -0.0310729 -0.0272955 0.0191999 -0.0307288 -0.0256215 0.0191875 -0.0300743 
-0.0242531 0.0191405 -0.0312337 -0.0200021 0.0192009 -0.0311413 -0.0262848 0.000894389 -0.0295807 
-0.0214862 0.00089987 -0.0298776 -0.0287355 0.00249954 -0.0293797 -0.0270018 0.00239485 -0.0288965 
-0.0252679 0.00235454 -0.0297849 -0.020649 0.00232789 -0.0290974 -0.018772 0.00208367 -0.0300154 
-0.0236008 0.00302978 -0.0297886 -0.0219362 0.00358295 -0.0291255 -0.0176083 0.00323973 -0.0292911 
-0.0293595 0.00426774 -0.0287646 -0.0276067 0.00405827 -0.0291982 -0.0235534 0.00463432 -0.0289738 
-0.0186337 0.00463056 -0.0298546 -0.0287199 0.00582271 -0.0294048 -0.0268693 0.00568489 -0.0289823 
-0.0222151 0.00611525 -0.0295629 -0.0204651 0.00571014 -0.0295766 -0.0258714 0.00744181 -0.0296229 
-0.0237746 0.00707504 -0.0291323 -0.0191152 0.00666725 -0.0302668 -0.0287592 0.00825114 -0.0293609 
-0.0212334 0.00767497 -0.0300951 -0.0283736 0.00996699 -0.0297417 -0.0261272 0.0092214 -0.0295423 
-0.0225034 0.00965567 -0.030035 -0.0209578 0.0092105 -0.0291226 -0.0192364 0.0097421 -0.0293273 
-0.0213743 0.010923 -0.0294553 -0.0179479 0.0110343 -0.03004 -0.0285038 0.011928 -0.0296191 
-0.025512 0.011961 -0.0291281 -0.0229365 0.0122319 -0.0301545 -0.0197086 0.0113641 -0.0299542 
-0.0291914 0.0134779 -0.0289384 -0.0270959 0.0127795 -0.0289052 -0.0258871 0.0136039 -0.0299533 
-0.0184697 0.0129113 -0.0297035 -0.0278092 0.0143681 -0.0296632 -0.0238519 0.0137741 -0.0301084 
-0.0220677 0.0138476 -0.0299296 -0.0201417 0.0140698 -0.0298623 -0.0291453 0.015353 -0.0289872 
-0.0252509 0.0151254 -0.0292505 -0.021577 0.0160629 -0.0291707 -0.019927 0.0158521 -0.029838 
-0.0292008 0.0171477 -0.0289266 -0.0268133 0.0160947 -0.0288192 -0.0238037 0.016165 -0.0294565 
-0.0182372 0.0164371 -0.0299649 -0.0276831 0.0176838 -0.0297259 -0.0259707 0.017681 -0.0288542 
-0.0241895 0.0178609 -0.0290156 -0.0219306 0.0178157 -0.0290245 -0.0198758 0.0177433 -0.030093 
-0.0286147 0.0192038 -0.0295067 -0.02694 0.0191963 -0.0288585 -0.022868 0.0191991 -0.0300844 
-0.0210035 0.0192108 -0.02966 -0.0187439 0.0192047 -0.0298604 -0.0286848 0.000896758 -0.0284378 
-0.0269405 0.000894797 -0.0279103 -0.0246989 0.000905653 -0.0287316 -0.0229221 0.000896389 -0.0284556 
-0.0211638 0.000897922 -0.0281052 -0.0195725 0.000895794 -0.0289393 -0.0177153 0.000890469 -0.0291947 
-0.0299767 0.00210744 -0.0281259 -0.0240302 0.0024639 -0.0281344 -0.022222 0.00241066 -0.0277974 
-0.0305292 0.00371204 -0.0275168 -0.028451 0.00312967 -0.0277099 -0.0251478 0.00376402 -0.0286923 
-0.0280703 0.00488523 -0.027674 -0.0220269 0.00507084 -0.0281206 -0.0200416 0.00411615 -0.0288653 
-0.0187636 0.00515414 -0.0281443 -0.0298745 0.00552364 -0.0275875 -0.0250881 0.00555246 -0.0284996 
-0.0178277 0.0063912 -0.0290465 -0.0290016 0.00701001 -0.0280876 -0.0272923 0.007574 -0.0285293 
-0.0255019 0.00718272 -0.0278566 -0.0218989 0.00689252 -0.0279747 -0.0203601 0.00762872 -0.0285284 
-0.0299997 0.00854882 -0.0280954 -0.0246932 0.00854963 -0.0286932 -0.0225121 0.00837731 -0.0287743 
-0.0186768 0.00797613 -0.0290969 -0.0282403 0.00951484 -0.0280114 -0.0174732 0.00948985 -0.02895 
-0.0295072 0.0107688 -0.0286106 -0.0266584 0.0104905 -0.0283922 -0.0248383 0.0103562 -0.0286908 
-0.023056 0.0102729 -0.028436 -0.0202987 0.0105175 -0.0280805 -0.0280356 0.0115435 -0.0279312 
-0.0237896 0.011909 -0.0286127 -0.0218757 0.0115285 -0.0278452 -0.0190913 0.0119062 -0.0283527 
-0.0305115 0.0128364 -0.0275416 -0.0247328 0.0135536 -0.0285627 -0.0229206 0.0134742 -0.0283885 
-0.020883 0.0125692 -0.0289398 -0.0195188 0.0136469 -0.028235 -0.0297924 0.0144794 -0.0275706 
-0.0265525 0.01437 -0.0282745 -0.0211975 0.0142554 -0.0284158 -0.0181939 0.0148476 -0.0283753 
-0.0239067 0.0150642 -0.0280457 -0.0198769 0.015447 -0.0280911 -0.0304568 0.0161534 -0.0275977 
[...]
POINT_DATA 10000
FIELD FieldData 7
id 1 10000 int
8834 2418 2561 4153 2382 1422 2177 3487 88 
4811 8557 7232 901 7564 2893 3849 4215 2374 
1436 3946 3763 6119 7964 2857 3361 1824 140 
4869 5781 4166 3352 4555 2783 2890 3424 3319 
2277 8019 3169 4661 1409 4437 2664 2895 4525 
1290 159 1755 1057 6538 5991 4002 3231 2118 
1661 254 2943 463 4179 6018 5914 7154 6612 
948 434 2254 169 2563 4484 4519 8691 4629 
2244 900 3148 4300 7860 3192 8422 3714 4093 
305 6127 2566 796 4488 9186 7610 4248 2295 
9073 6845 2736 4435 1906 8476 9470 9286 4860 
1761 1894 2995 7409 1884 940 1342 9200 6340 
1151 5250 2217 2199 932 5851 8331 323 2475 
1530 4905 4552 6565 728 124 8477 7168 3095 
5630 519 3856 2989 2321 3824 3287 2414 7810 
4067 5824 2242 5952 8304 6076 2713 1722 4755 
3068 1718 1785 1676 590 219 1916 94 3275 
1389 715 1032 1286 8044 23 8979 2742 3579 
263 2274 163 2107 1856 3400 3876 295 1904 
980 6704 2786 8953 4038 2125 981 2999 4313 
2491 6910 3565 1817 1416 1437 3044 399 3158 
2336 3476 1114 5689 1720 4316 4264 9737 8666 
73 7858 5035 3371 4258 1271 2179 4476 1666 
581 422 3362 405 2500 6126 9867 1768 3589 
4839 8948 2041 7606 9489 9519 1123 1900 7312 
4663 3334 3928 1992 2581 1031 3611 4884 1189 
8715 9102 2693 1477 1475 3033 131 3159 3254 
2211 4533 3893 214 2839 6830 6322 5024 3880 
204 3960 7007 8890 5002 1775 2867 8969 8889 
3129 8232 1005 2236 558 6611 1036 2243 3811 
5813 4338 939 3405 267 5320 8686 3696 9386 
7836 4793 9781 3493 4468 3065 5540 7681 2384 
2648 9487 9808 8153 2248 1871 5810 826 4512 
2030 2688 7555 1121 5391 1182 1849 6014 2062 
2197 6800 3207 7033 3267 8647 507 286 7548 
4202 3355 7407 753 328 544 7530 3036 8302 
1080 2106 4777 5564 2303 3537 3125 2290 2669 
3993 5534 7871 2930 408 4385 4895 968 177 
4784 621 8314 6158 7935 1330 4128 1050 976 
5643 6743 3575 5844 1927 7027 6524 4738 6148 
6826 3156 4509 8466 314 4741 3608 278 7243 
6115 4920 4293 5945 8118 3571 324 1874 7794 
8398 2649 2072 6960 8283 5772 5998 6267 9388 
569 1784 153 1868 3343 8361 1108 7363 8560 
1552 4330 1691 3556 5441 7729 5061 3505 1193 
7975 3373 1309 1629 5254 3477 4879 496 4106 
2339 9876 1295 8033 5818 4134 6742 6027 4381 
3385 4800 9813 3518 1621 409 3541 692 6168 
8419 3299 4028 3168 4876 4017 7155 6423 8330 
2394 8527 5311 8172 8455 518 9760 3368 1749 
6895 4570 7868 523 9474 280 1068 217 4698 
5312 4548 893 3783 9893 3814 2373 147 1260 
1964 4125 1846 2676 599 3995 4827 1669 1041 
2746 6659 2788 2914 3569 1345 2906 37 7364 
6614 3888 1172 7539 259 9611 45 9221 270 
4485 935 4998 8119 9682 9409 5151 2306 2430 
9560 1744 7145 3616 7993 966 3298 3383 653 
2085 4787 1452 5121 8698 7461 954 7706 703 
498 4575 1248 7820 2245 7102 8689 967 3664 
547 8237 9679 6133 7792 4055 5267 8362 6646 
7195 9356 9075 3832 2493 3112 3512 2692 4278 
1756 8523 4448 3397 7648 5071 3773 919 1264 
6275 664 564 5736 972 3546 4018 6789 8481 
6066 4360 9324 9174 2036 7416 2913 5049 6777 
1171 373 9477 6763 6359 6863 2114 3724 1788 
1303 8327 8959 2806 9291 3392 1157 2809 5306 
4444 1218 8659 5126 119 3841 994 1733 9152 
2103 3143 2792 7998 6177 5634 7103 2079 7779 
4246 6130 1576 7238 3559 4085 8807 7069 201 
4510 7900 8030 2731 4142 3785 5016 7317 9463 
3239 4511 5721 3961 6087 7257 500 149 1194 
3758 9486 6348 3700 1340 2104 5261 1679 3410 
4289 1972 5294 1834 8743 6920 9668 6467 7194 
1487 1686 9930 7315 1482 4217 364 9076 897 
943 3067 6623 9490 3780 2618 8102 9341 1166 
2154 9678 3701 1779 5266 6388 7345 8618 4532 
8315 6444 429 7088 4090 2063 9441 5029 3451 
3816 2360 7100 253 9305 5007 6147 5042 9512 
6241 5285 2860 4373 6715 2725 1952 5709 7772 
2964 5282 7079 7378 5314 1773 5232 3121 1619 
3396 1202 2532 4614 7201 3990 4904 6569 5451 
2925 6859 1027 432 4349 9301 9184 7036 8143 
9462 354 4501 2131 1617 6898 1445 2029 4318 
1213 9518 9108 8970 4341 708 9676 4803 447 
768 5237 7978 9779 1742 2286 6156 120 1233 
1337 5599 6389 9237 86 6325 6842 4374 2172 
1495 3638 1173 2608 5031 6620 7123 1765 2868 
5438 4019 3924 5732 4428 4333 4174 3779 9587 
3059 5317 6063 7224 2955 3837 3128 8925 9843 
9699 2653 9374 6583 4626 9461 6491 4899 5056 
9660 9167 1232 861 2807 154 3631 2102 1349 
7956 4037 6415 53 4727 4893 2873 2582 7080 
6045 5260 9807 462 749 1071 2811 9053 5356 
6982 1010 874 3910 4101 1872 2234 9939 2421 
2534 7355 9861 6099 1160 2375 5505 2619 2451 
804 1127 6321 1105 3419 4031 6615 4001 6482 
6185 4978 9988 8007 6638 1847 1453 1800 3076 
4549 1807 803 9942 6452 7840 9422 2583 6801 
2428 4260 3801 3711 7041 2094 6986 319 2011 
2331 6081 7913 6049 4867 2654 6867 1451 3860 
4377 2851 2259 6603 3484 2167 2462 9885 891 
6426 4331 3453 3072 3545 902 2200 450 2667 
762 8154 3266 1197 7340 8482 9327 8954 8785 
2784 1625 1771 5059 5015 5360 1726 4391 6218 
5921 4586 5155 4417 4577 8051 4611 752 884 
766 9495 4280 8949 4523 1407 1363 8321 2634 
249 7742 1111 1044 7075 7043 6979 3587 3130 
4287 2976 9338 2633 436 242 8882 8961 3614 
1893 182 2056 2440 3115 4147 7604 6942 7955 
7383 2042 1832 514 8480 3805 6564 2128 7344 
5956 4870 4724 4263 5740 3879 5331 5433 1244 
1414 4925 4766 7803 6621 3445 8443 4155 9284 
1412 7348 2621 3822 5431 7744 9569 1743 4434 
5248 4580 7727 4743 2901 4205 5582 3430 8430 
3925 449 763 4644 5491 7176 7701 1873 4193 
9456 1833 1887 9674 1862 1356 9940 929 524 
8705 806 2425 6480 5210 580 7992 9347 9287 
4032 6324 2017 2150 6879 8048 4150 1383 3342 
7570 6139 998 8911 7301 3427 1941 2180 7183 
1190 9227 1237 3733 3198 2988 452 6006 2325 
567 6856 9430 3965 2632 9045 8814 8411 2300 
379 3788 3504 4721 5600 2972 5226 2933 4820 
7121 3969 2612 2755 4040 4212 3142 1705 6291 
6456 3047 9953 5469 3187 5588 9541 2880 4086 
2703 2883 7347 47 4773 5938 6111 5198 7397 
8079 2830 975 3981 4688 7251 9636 6521 9665 
6184 1958 4801 8542 2090 5890 9624 4874 334 
1358 9146 3137 3902 7882 2486 5315 3884 5545 
4346 3261 1261 903 3202 1703 2884 906 5944 
1129 6251 125 2174 7503 2610 4658 1668 340 
3506 4579 675 8501 1963 6795 8066 4809 8435 
6234 3606 5436 7422 5937 6304 2908 5531 8052 
277 4108 3952 7916 5593 1804 4531 8941 937 
7582 4776 8789 6339 1706 773 4473 5009 1648 
7350 5758 4483 713 2071 6080 9994 8275 895 
2650 8196 1561 8843 2431 215 2558 9996 8840 
4946 3586 393 853 1739 7823 4363 5947 5663 
6894 645 8418 5733 9306 9929 3124 264 1462 
1523 6653 5044 6128 3883 4379 3803 209 4728 
3099 6404 1514 2627 6443 4707 8580 2723 9418 
54 5459 402 2038 4462 7400 6640 6961 3333 
3488 4211 2920 791 2568 5751 1211 9015 3718 
8042 2329 292 1750 7256 8089 9247 6345 4796 
9300 1970 5039 4345 1880 4686 8210 8791 7196 
1115 4942 3769 4173 7245 5062 6516 8730 3367 
1056 5090 7889 8658 9396 4782 9309 7821 698 
779 1529 2628 5019 938 8133 2162 5820 7442 
8010 1385 331 421 1065 3869 5484 3596 1203 
4902 231 6152 4460 1912 312 3161 1357 7502 
4657 789 3576 6535 6297 8649 6887 2836 18 
8436 4923 49 6421 1518 4520 240 3581 273 
5752 4949 9122 1268 533 347 4183 8403 2350 
5635 6198 4225 6978 9117 5660 5478 5518 8549 
890 1246 2143 6953 1921 1201 3106 7506 8325 
7018 2522 6543 2690 6005 9592 2937 506 2909 
7453 8767 5985 9350 6307 4641 5715 4649 4630 
9784 6770 6909 7875 3955 3740 3970 2598 1238 
6643 3398 114 8124 4585 9717 6924 9340 1909 
9413 947 6269 1503 3500 2730 2086 8339 8891 
7982 3662 7116 9769 3243 3443 1652 9357 6008 
5576 8054 4681 8127 1183 268 7725 3980 8432 
1198 4182 1 2145 4252 5515 8220 10000 2198 
3964 8214 9963 1300 7674 8847 4254 38 5222 
1539 9360 9531 1081 3438 4711 9526 4415 1730 
1458 1795 3301 2697 2379 8746 8600 5373 2629 
3852 8036 8826 2117 9153 8156 258 7297 7458 
3790 7778 8008 8937 5403 2098 3046 8272 1936 
3482 4886 8611 9269 4367 8012 7496 4837 2080 
1639 1989 7299 5581 322 3399 4454 8396 8208 
2727 3464 1059 9268 8652 3572 6341 8344 4662 
3471 7410 3250 3166 9070 1281 6042 8426 3936 
302 7209 4651 916 6215 5668 3624 5027 1603 
2842 1489 2846 6195 401 2238 6657 785 4544 
2637 7019 3498 7754 8768 366 8193 3388 1274 
391 325 4307 1390 2803 9349 194 2774 899 
1534 1910 4584 3497 6254 9900 5074 76 48 
4098 4687 5410 4842 9322 7738 8930 3815 845 
2497 7225 6223 5867 3871 7333 6932 2223 6220 
8305 1392 9369 2326 6192 5700 5641 3468 6202 
5159 5578 1434 974 7567 8267 9033 9670 3657 
3957 1401 8148 7489 3562 3230 1347 8760 6294 
6272 5669 1837 1622 8031 1209 1551 9744 8820 
7377 4159 4829 6458 6940 6327 863 936 3494 
7847 246 4950 3026 636 3310 1624 42 777 
5138 3668 7541 3314 4410 6074 7066 4464 6171 
4957 1821 1079 2292 479 2116 8734 6435 5869 
2458 4069 6550 5587 1815 4494 1305 9979 7165 
2602 8690 311 1043 9250 9354 6735 8602 1643 
2804 1078 5857 957 735 3470 3426 5701 6965 
7692 3634 4759 3378 5380 4605 9715 9308 2487 
3527 2330 207 4682 8038 6354 5135 7419 6125 
2185 7809 2407 7338 8654 9424 5005 1564 2470 
7877 2165 5687 2337 686 5690 5 1767 990 
7918 3806 9230 9695 2780 1141 7076 1130 7679 
5657 4541 1528 2738 5279 4812 9429 7329 7026 
9351 4279 3031 1038 226 7368 3695 121 8575 
6677 9999 5078 3913 3029 7298 4669 6881 9417 
6971 3321 29 8586 3244 16 7374 4361 2702 
7303 9926 3220 6666 1184 6021 411 737 3193 
8766 5511 6407 9635 8144 6375 5130 4465 4931 
3327 3153 7 7163 6713 5609 3985 3708 986 
1993 6848 1751 2272 342 5079 6326 8888 1942 
420 5887 7612 3707 8585 6532 6824 4469 3006 
2455 4490 2471 1402 7977 4861 2126 7468 1382 
6996 6219 8024 9428 8276 9031 4496 4149 2007 
4194 7841 2837 2921 4918 2586 4332 3499 910 
5959 8264 8682 1167 2495 1649 5694 4429 8312 
9136 3386 772 2307 223 5622 6308 9868 9260 
6083 2479 4597 7775 585 5231 7313 179 9370 
2308 2312 6902 5895 5330 3986 1051 352 2631 
7981 4973 2919 5676 6488 3935 3886 9811 9918 
6904 588 8240 8755 3976 8859 5381 734 8702 
7863 2301 4094 8714 4642 1526 5233 5112 1859 
5554 6914 4589 1120 9950 7966 1265 718 282 
1848 6232 8425 6113 5432 4335 96 2732 2682 
3619 4680 7813 7001 8111 3551 4321 1289 2708 
6997 3307 9438 659 7923 7509 8554 8117 298 
7685 6238 7279 1553 143 7060 4269 9755 4244 
141 4267 8413 4771 1623 2445 8628 9159 8944 
866 7749 2087 416 3317 2540 8291 2095 63 
3273 9482 3756 5962 9849 4306 2168 1055 3328 
7768 6186 5898 2956 6242 5753 8831 3289 5202 
7559 443 5648 1590 1312 1459 5220 6810 6380 
945 4500 3189 9175 4277 6285 4351 3872 8904 
4689 2260 8893 6180 8752 1354 1001 8334 8695 
869 4121 5082 3703 4075 8630 1282 4201 9081 
2533 9190 6343 2707 5239 6832 2357 1934 6797 
3656 6311 6815 6892 8751 6774 747 4486 3027 
7658 5612 9394 2148 3315 725 2247 6983 6658 
1103 9168 3622 9068 2673 579 4077 55 9331 
4808 6052 3312 1307 7261 13 9706 5105 4189 
7120 1560 4631 9530 5341 2047 7418 5761 8943 
5727 9280 4375 5685 4083 4881 8191 6598 5014 
31 3690 5338 6805 3558 8346 8567 4560 2635 
1940 7517 4617 3670 9735 188 9019 2572 2027 
7537 2121 1741 5674 1986 3683 6609 9063 5449 
3971 407 2789 4636 3205 3265 2967 5487 2427 
475 922 7327 8563 5305 3989 486 1227 3461 
4909 5738 9796 1188 384 687 1973 3598 7247 
9050 1522 764 9128 4833 8502 7296 4479 7311 
4933 4779 1794 4813 1096 5504 6029 2204 8569 
4441 4325 113 1843 3751 2605 1640 6331 4074 
2503 7565 3242 6935 3341 4843 338 2100 9841 
6772 6089 5584 427 760 8606 5703 6632 5961 
9503 4986 1021 3131 7518 3042 5342 8113 275 
7401 5106 3933 3839 4282 3423 5095 281 7745 
5958 7434 3390 9344 6149 5805 3953 9452 116 
5040 6245 9860 2012 6208 8460 1630 8855 3516 
769 6302 4982 8861 195 2461 413 1753 5292 
1325 5973 41 9928 39 8727 3256 1236 1938 
5490 575 1178 2446 9105 3293 6478 5594 4873 
8440 3245 8736 648 4005 4762 3281 4284 4008 
8900 1169 4638 7797 8388 1094 3212 8173 3697 
1486 2033 271 3375 8171 1028 1642 7670 8546 
8956 8381 2405 1296 7519 1366 9745 4025 4660 
5207 9226 5910 2378 9473 2838 3408 6188 8356 
9609 3217 4060 4235 6153 9535 5766 3024 5093 
5860 9009 1540 3263 304 3555 745 3050 2250 
6487 9412 9992 4956 2741 730 5918 8645 230 
4732 35 1542 1223 3786 1806 5842 742 9536 
1505 2684 7826 8638 7711 1423 867 4857 1064 
5771 7000 6084 386 7159 3002 3018 459 64 
4913 963 6056 3284 5375 3372 8896 1455 4135 
1098 419 8175 9823 7611 8572 4653 669 4836 
1903 6015 3645 2448 4562 2993 6590 3699 1892 
4648 7662 5041 7258 7213 9303 2813 9478 2705 
3105 2686 2888 7321 8641 97 5175 969 6199 
2212 7184 9513 3216 7004 8885 3877 6527 7991 
3857 2849 3725 6194 2219 9101 5557 4302 4745 
5489 6336 3977 3304 3075 4089 8479 8519 4953 
4138 8313 3889 2800 7106 8991 2262 2795 4204 
2397 4722 3203 9004 3689 570 5832 1827 8194 
5595 4894 6384 2687 3063 1481 3526 2381 4295 
1822 6952 7532 5343 7671 4418 7833 454 2524 
4831 5714 8050 1364 848 2273 8496 3389 174 
5542 8894 5632 5806 1432 631 4136 3847 2794 
1511 3603 5874 6329 1774 4184 7936 6160 228 
5683 532 9613 4760 5170 5336 9030 6981 4516 
7253 556 1324 2915 5974 7851 553 836 8280 
720 1250 1251 6951 3249 9201 6855 5150 2110 
1663 5919 4708 1144 1670 839 1214 1548 5101 
5759 5182 1600 5562 5981 3710 8733 4822 3232 
3647 9684 7497 3950 6948 4322 1327 2230 5803 
7890 5448 5113 2229 9419 2411 8131 4406 9361 
8753 3898 4386 3005 9785 1738 6090 7200 8516 
8604 478 4095 2078 5934 1336 8716 2127 8471 
1634 9139 5568 9845 6330 5881 5287 8492 7353 
2006 4234 1715 1924 2740 8349 9289 370 7739 
9669 1604 2675 5154 7227 824 5679 5092 6933 
540 8098 4693 5032 811 3772 4049 3582 7192 
5650 8878 3022 2187 555 896 5798 10 4635 
1980 1752 6957 1838 1137 1516 6229 1677 7731 
4467 7056 1353 1440 923 5467 4627 1444 6922 
8035 7382 5811 7588 8472 9151 2651 740 5278 
6387 9017 4489 4547 4676 8676 2829 52 2918 
9615 8978 1525 8163 545 4103 5862 1491 6196 
7961 8226 4785 3781 5178 4751 1896 3673 4471 
5482 2607 6840 8886 2808 617 4697 1632 1651 
9887 2900 2714 4862 3000 5445 2941 7408 2609 
6131 6211 5651 2109 3486 1835 2284 3181 3663 
6276 8132 1348 332 4304 1125 7073 1344 5224 
3890 6408 2984 5902 6574 5949 8464 4480 9839 
5172 3578 4930 9097 6366 1999 4076 833 949 
4665 638 2463 2231 5979 2010 245 2129 6844 
6619 59 6138 4198 8390 5259 1533 4466 9294 
2001 7424 2615 1136 227 2196 7221 6431 7039 
7630 8039 9323 6073 4034 17 3429 2929 8378 
6464 596 7521 6787 7866 123 7237 3560 1460 
5780 6851 4960 2749 593 5853 6687 2903 4621 
3492 8487 4735 7980 2275 4706 6773 7558 8345 
6472 5856 2074 1321 5744 4171 5153 977 3246 
5026 3290 8520 5698 3116 71 502 5746 5349 
6227 5777 4443 9872 1841 3345 5677 8838 7623 
291 4985 2018 5508 6228 3225 6531 6469 7185 
2593 729 2068 3401 1960 9471 7666 5739 9450 
2945 4996 2562 4389 5992 8994 7274 2698 7987 
445 161 8077 2089 6555 6818 9961 1513 4281 
7067 4749 7244 7557 3930 3318 4618 741 8683 
4823 5494 8253 8438 2342 7480 7878 5003 2460 
2927 9014 6528 885 130 8951 5876 8835 7931 
7678 4120 4022 6489 5001 6145 2590 1579 7953 
5446 6277 5607 9423 5264 6124 930 1156 7705 
697 2750 859 928 6673 2402 9496 7640 4537 
8538 3147 4847 9315 7528 8242 3501 3570 2280 
7402 8300 6041 5855 2170 2178 6393 7289 5269 
9129 2623 7197 4667 4099 3040 5366 4792 2666 
8097 778 9404 9790 1766 2971 6712 6262 5546 
7758 9295 3113 1645 6927 2302 4554 7467 751 
6314 7545 9048 6860 6379 4152 4226 1150 2748 
5971 7190 759 2551 670 1813 6144 8382 2218 
1814 527 7695 4619 2388 5166 9507 5256 4499 
431 2393 5251 8157 8182 1589 1968 6628 160 
2891 3840 871 8613 3868 6630 8095 5879 2163 
3585 4530 474 8370 9330 7510 8427 9086 4558 
2140 1228 6154 2662 6841 3577 894 3549 5997 
583 9242 5355 8806 2138 8721 6178 4009 87 
3671 1929 4673 5930 4713 6540 9801 9650 5473 
4718 3300 5033 5816 6038 3252 1502 4606 9224 
8533 8200 7381 7831 9485 3522 4677 1680 8293 
4127 164 681 3177 1398 6561 6966 137 2096 
9686 554 1318 3475 4799 6582 1175 6514 3904 
2659 2434 3649 2548 1881 9440 4851 509 3391 
1217 8025 3929 3568 3823 8152 2691 6539 2058 
608 3079 7652 3394 117 1707 6868 2630 5191 
1675 3051 3855 6822 6988 905 1323 6726 7181 
7157 3020 1362 5778 1879 1322 8816 5513 5570 
6993 7698 4911 1997 455 5214 2565 6257 7828 
6791 3538 7783 6103 1069 6888 3478 7552 7207 
1614 4369 3983 646 3170 5984 9821 3958 610 
4798 4457 9240 1466 8528 3659 2422 1374 2526 
327 4364 8821 3194 9962 3172 4852 5686 6012 
6288 8509 3103 4256 2081 9400 3792 1664 577 
32 2205 4084 5989 5658 8822 2801 2617 9293 
1689 5466 4515 3795 3973 605 176 6679 105 
6317 252 3107 5799 1074 624 4506 3152 9032 
3859 2291 4292 4368 2389 9504 7094 9363 4726 
8134 309 414 7098 4126 7596 6812 5750 8056 
8241 7113 8123 1145 5841 1704 3525 4092 5563 
283 1647 7812 6835 7864 4180 1267 2481 1890 
566 7825 1532 6203 1520 6560 691 4764 4524 
6916 3223 710 5977 8335 9208 817 6705 6416 
5321 6355 8598 2887 1468 7177 7599 2715 178 
4004 7202 7796 3035 2015 4571 2232 162 8395 
8793 2847 4832 8868 2097 1607 4072 8984 835 
8976 2439 1177 1207 1070 1613 5246 2556 3163 
5148 2505 1415 1370 6592 9455 4684 4 5307 
3817 4456 1106 2413 542 6032 594 5057 4218 
1557 1212 4907 8696 2751 650 6775 7859 326 
4458 1568 60 5365 6837 8981 6120 5550 3288 
8085 1272 6135 1277 5866 6216 7118 5970 8601 
8512 5539 8318 7759 1192 4806 522 1377 654 
1299 1922 3870 5396 5795 4340 4243 394 4270 
2695 5407 7780 7660 1024 266 6094 1710 8920 
5223 5845 7002 7642 8357 9501 3915 341 6332 
6991 4056 2351 9062 6782 9214 7135 970 8803 
642 6534 3060 4863 3956 1101 3013 1087 6405 
4445 157 771 6816 306 9079 4030 5236 3452 
973 2998 5901 7887 1243 2785 244 7204 4656 
2123 6907 1944 3536 4063 8170 3653 7605 3365 
7720 6498 3932 3271 359 1140 1569 7675 6019 
4705 1293 989 3633 4817 4455 7807 8923 499 
3436 3641 2225 4414 2696 1275 7230 7507 7832 
7035 4157 357 6300 1006 5549 6691 3313 2157 
5571 9533 9589 2443 3984 2359 139 1985 3433 
484 2559 9754 6575 1339 2051 1164 4508 220 
3437 7326 1049 460 1876 9126 5706 7973 5968 
4709 5340 8975 3201 2380 7710 1395 2689 1926 
466 5951 8340 5830 7198 1685 2349 461 1776 
437 1301 2978 2709 257 5389 4242 8939 5846 
2133 4596 4540 2124 1983 8790 3126 1419 2674 
279 1394 2450 9176 1537 3489 9680 7385 3133 
1257 3632 3003 184 2958 7372 2182 476 934 
8145 200 2864 1181 4231 1734 6834 1015 3702 
5156 2132 9411 4164 1206 7273 490 6833 9120 
5770 8777 3069 8863 4716 1472 1701 1601 955 
4423 849 6460 6733 3539 5583 483 3257 6306 
9642 4214 381 1255 1430 7268 8005 6382 4337 
2221 3032 2399 5454 9420 2531 2614 2922 7394 
4068 5606 2574 6425 2322 5671 2193 348 3214 
9865 3738 3959 1981 1306 3944 1497 7065 7435 
2835 349 2699 5672 8763 9777 4146 1971 2763 
3592 1678 690 9773 2318 4871 1360 7790 5470 
1994 2009 1914 3472 1256 2592 4206 2288 9704 
7634 1139 1134 4111 4865 2457 487 4052 9130 
601 6720 9177 5075 6447 5809 1113 8310 5560 
700 6243 5245 7358 371 9833 4482 1294 3552 
9135 3481 7638 2845 8431 4396 4051 3344 5589 
4370 8795 2853 5707 4129 3218 2514 1990 4844 
1809 2459 1578 2668 1935 665 3693 2720 1252 
6494 3900 1259 4514 1727 1857 2832 1091 9499 
5392 4081 6274 8880 3435 991 4250 4696 1030 
2798 3110 8629 9949 5192 5083 561 4795 3303 
913 1933 1969 316 2889 8540 8045 6315 2819 
959 2203 2824 2233 2762 26 2383 3760 3609 
4420 2530 8223 8041 3393 1122 4900 4740 8513 
3550 4991 4433 7659 6547 4634 4229 3580 6097 
3941 6060 9810 3258 2476 717 3654 1945 816 
4167 3233 1996 7365 1490 3007 2141 9778 9630 
1016 2222 4116 3891 1158 234 2281 2677 4114 
3705 8871 8088 6968 8258 8317 3838 9864 2974 
1221 5421 3853 451 1762 5067 6225 9924 8759 
4262 3132 9685 7601 2216 193 5413 7384 7696 
5132 9594 1602 2827 1966 9651 5541 714 3600 
1485 6422 5133 5419 8883 8578 4652 321 6079 
4748 79 4650 2136 7484 2550 3625 1102 3612 
3507 4967 6599 7732 3975 1865 3895 3294 2510 
5953 4747 4853 3948 1391 4236 4593 4712 3055 
1708 387 4802 8612 7787 4647 9162 684 6122 
1671 5310 335 1819 4036 9783 3173 8405 3994 
1840 473 9 8971 9543 9936 9353 9047 2044 
5322 8723 5345 3417 248 3553 6169 7736 1687 
3599 4228 7169 9554 7689 3916 8260 9141 3199 
2309 9502 1957 2717 9982 7750 2366 1658 3503 
9578 4400 3519 661 9794 9648 2334 2899 5608 
6869 3954 4926 3639 9584 8829 3533 3573 4033 
7522 2237 3509 8322 2948 4082 9701 100 74 
1335 1531 5620 34 6796 9728 4053 4422 3669 
4315 9883 7188 3782 3274 8055 8921 1484 7335 
8901 4965 1082 2761 5498 9689 7024 951 211 
9297 7746 4016 3865 4810 8710 9797 7008 7676 
3084 9432 3629 5767 3802 4564 2323 2511 7186 
2734 1154 8281 1948 4305 1034 1635 4919 1457 
2066 9621 5972 9884 8742 4276 9215 9195 2467 
7997 1104 9662 8070 4208 1061 4825 2436 5398 