# vtk DataFile Version 4.2
Generated by LIGGGHTS
ASCII
DATASET POLYDATA
POINTS 10000 float
-0.017934 0.00406981 -0.0369795 -0.0190447 0.00711949 -0.0364215 -0.0187997 0.0103247 -0.0365507 
-0.0178707 0.0133005 -0.0370134 -0.0181767 0.0150638 -0.036863 -0.0190362 0.017258 -0.0364306 
-0.0192234 0.000902941 -0.0363367 -0.0176314 0.00089881 -0.0353686 -0.0212199 0.0018787 -0.0352009 
-0.0181888 0.00237101 -0.0363495 -0.0210939 0.00370592 -0.0352767 -0.0195131 0.00356785 -0.0361766 
-0.0206797 0.00599653 -0.035515 -0.0192236 0.00533035 -0.0363332 -0.0214096 0.00758793 -0.0350839 
-0.0200863 0.00851315 -0.0358682 -0.0183364 0.00888398 -0.0355803 -0.0203678 0.0104394 -0.0356829 
-0.0195478 0.0119732 -0.0361545 -0.0213324 0.0131898 -0.0351398 -0.0181179 0.0126575 -0.035304 
-0.0194264 0.0139396 -0.0362267 -0.0209469 0.0158967 -0.0353676 -0.0191648 0.0157189 -0.0355128 
-0.0205369 0.01768 -0.0355389 -0.0176172 0.0181678 -0.0356926 -0.021388 0.019202 -0.0351003 
-0.0191571 0.0190808 -0.0363595 -0.0230317 0.00116831 -0.0340507 -0.0197605 0.000890078 -0.0346328 
-0.0197186 0.00268286 -0.0346326 -0.0224646 0.00291243 -0.0344194 -0.0181744 0.00353967 -0.0349759 
-0.019646 0.00462498 -0.0347303 -0.0223644 0.00615993 -0.0344917 -0.0180137 0.00579891 -0.0350982 
-0.0191637 0.00761737 -0.0346199 -0.0226908 0.00934895 -0.0342708 -0.0208603 0.00924611 -0.0344313 
-0.0218746 0.0108623 -0.0347969 -0.018985 0.0106602 -0.0344488 -0.0227095 0.0123614 -0.0342633 
-0.0203267 0.0118452 -0.0345175 -0.0195146 0.0134492 -0.0345087 -0.0221264 0.0147119 -0.0346304 
-0.0179978 0.0144353 -0.0350367 -0.0199919 0.015112 -0.0340376 -0.0178494 0.0160391 -0.0341007 
-0.0220946 0.0175136 -0.0346608 -0.0188656 0.0174115 -0.03465 -0.0228901 0.0191222 -0.0341188 
-0.0185782 0.0192049 -0.0345905 -0.0244717 0.00089913 -0.0330235 -0.0212935 0.000896054 -0.0337019 
-0.0196603 0.000924505 -0.0328448 -0.0235482 0.00256348 -0.0330306 -0.0183224 0.00166645 -0.0339026 
-0.0224251 0.00396599 -0.0329616 -0.0207458 0.0036404 -0.0335168 -0.0191796 0.00290888 -0.0329327 
-0.0248424 0.00422709 -0.0327421 -0.0235919 0.00514778 -0.0336528 -0.0180097 0.00477944 -0.0336223 
-0.022397 0.00609776 -0.032702 -0.0209282 0.00541654 -0.0337185 -0.0192555 0.00606624 -0.0337312 
-0.0239794 0.00690119 -0.033386 -0.0206012 0.00764264 -0.0334712 -0.0175302 0.00661185 -0.0335737 
-0.0240971 0.00879424 -0.0332964 -0.0223927 0.00771142 -0.0335878 -0.0216451 0.00915209 -0.032824 
-0.0192697 0.00910167 -0.0336098 -0.025159 0.010212 -0.0325071 -0.0237538 0.0106048 -0.0335474 
-0.0220517 0.0109022 -0.0327809 -0.0203698 0.010538 -0.0332871 -0.0242084 0.0123132 -0.0332124 
-0.0191337 0.0120608 -0.0331915 -0.0213271 0.0136631 -0.0334085 -0.0180284 0.0134968 -0.033498 
-0.0234908 0.0138834 -0.0337246 -0.0251017 0.0150154 -0.0325519 -0.0237772 0.015745 -0.0335248 
-0.0224221 0.0148961 -0.0327007 -0.0214638 0.0160649 -0.033661 -0.0198495 0.0167753 -0.0332933 
-0.0235856 0.0175272 -0.0336585 -0.0213427 0.0177367 -0.0330491 -0.0176623 0.0176911 -0.033344 
-0.0243796 0.0190375 -0.0330972 -0.0201633 0.0188348 -0.0338388 -0.0258892 0.000899028 -0.0319228 
-0.0225953 0.000898506 -0.0323333 -0.0209346 0.000915812 -0.0315752 -0.0179398 0.000924613 -0.0323205 
-0.0252432 0.0024983 -0.0324364 -0.0214861 0.00229186 -0.0325914 -0.0265466 0.00368497 -0.0313804 
-0.0227501 0.00283618 -0.0314431 -0.0204403 0.00336253 -0.0315834 -0.0212279 0.00491918 -0.0320142 
-0.0195283 0.00464823 -0.0326692 -0.0178035 0.00428119 -0.0319091 -0.0260217 0.0053498 -0.031818 
-0.0241158 0.00572726 -0.0320301 -0.0202088 0.00638026 -0.0322414 -0.0184084 0.00595307 -0.0321507 
-0.0253947 0.00696251 -0.032287 -0.0216108 0.00754488 -0.0319782 -0.0189502 0.00755105 -0.032765 
-0.024996 0.00861283 -0.0317164 -0.023389 0.00782173 -0.0319616 -0.0232546 0.00976512 -0.0320372 
-0.0200503 0.00901079 -0.031995 -0.0177913 0.00893242 -0.0326025 -0.02653 0.0104658 -0.0313748 
-0.0187539 0.0104457 -0.0325059 -0.0266005 0.0122658 -0.0313306 -0.0247598 0.0117058 -0.0316077 
-0.0208068 0.0121757 -0.0325427 -0.017687 0.0120151 -0.0320851 -0.0254555 0.0132774 -0.0322829 
-0.0225385 0.0126954 -0.0325096 -0.0266971 0.0140639 -0.0312506 -0.0238088 0.013914 -0.0319598 
-0.0214483 0.0138174 -0.0316221 -0.0196591 0.0137166 -0.0327457 -0.0181944 0.0136905 -0.0317078 
-0.0262839 0.0159718 -0.0316029 -0.0209684 0.0159031 -0.0319438 -0.0185521 0.015129 -0.0327207 
-0.0252325 0.0172228 -0.0324549 -0.0241126 0.0161495 -0.0315557 -0.0226113 0.0166537 -0.0323927 
-0.0192572 0.0163546 -0.0316207 -0.0195329 0.0181054 -0.0318816 -0.0257956 0.0191202 -0.031993 
-0.022667 0.0189085 -0.0323483 -0.020908 0.019216 -0.0321546 -0.0184561 0.0192047 -0.0327983 
-0.0272364 0.000899416 -0.0307373 -0.0241988 0.000898957 -0.0312559 -0.0225507 0.000899161 -0.0305416 
-0.0181775 0.000892786 -0.0305473 -0.0261181 0.00226054 -0.0303753 -0.0244306 0.0026539 -0.0308414 
-0.0213397 0.0022744 -0.0304659 -0.0193349 0.00195629 -0.0314162 -0.018806 0.00348879 -0.0306502 
-0.0247368 0.00442399 -0.030957 -0.022871 0.00462567 -0.0313498 -0.0197721 0.00508147 -0.0309499 
-0.0273823 0.00526261 -0.0306491 -0.0228215 0.00642163 -0.0309928 -0.0213957 0.00555103 -0.0303397 
-0.0179469 0.00539647 -0.0305028 -0.0280252 0.00758514 -0.0300642 -0.0267949 0.00687478 -0.0311671 
-0.0245497 0.00685378 -0.0306973 -0.0198491 0.00756574 -0.0309356 -0.0175874 0.0074628 -0.0315992 
-0.0267217 0.00866762 -0.0312217 -0.0185607 0.00884417 -0.0309865 -0.0216787 0.00949277 -0.0310672 
-0.0278433 0.0109169 -0.0302353 -0.0245545 0.0101057 -0.0308236 -0.020463 0.0107441 -0.031502 
-0.0230122 0.011411 -0.0313553 -0.0214548 0.0121635 -0.0308593 -0.0188843 0.0113681 -0.0309086 
-0.0279426 0.0128504 -0.0301504 -0.025101 0.013102 -0.0305455 -0.0230084 0.0130459 -0.030603 
-0.0198396 0.0128968 -0.0311615 -0.0280012 0.0146446 -0.030087 -0.0246027 0.0148187 -0.0304629 
-0.0198277 0.0146921 -0.0312473 -0.0228096 0.015009 -0.0309446 -0.018055 0.0152634 -0.0308602 
-0.027605 0.0163638 -0.0304468 -0.0267934 0.017808 -0.0311642 -0.0250349 0.0177757 -0.0307683 
-0.0232712 0.0176529 -0.0310552 -0.021494 0.0177426 -0.0312637 -0.0178499 0.0174738 -0.0315694 
-0.0278992 0.0190537 -0.0301844 -0.0261052 0.0191974 -0.0302233 -0.0241174 0.0192084 -0.0313356 
-0.022494 0.0192016 -0.030573 -0.0207134 0.0192022 -0.030374 -0.01893 0.019203 -0.030557 
-0.0276399 0.000892637 -0.0289884 -0.0251386 0.000897194 -0.029735 -0.0214287 0.000916516 -0.0291457 
-0.0199128 0.000891798 -0.0300966 -0.0287026 0.00226487 -0.0294275 -0.0269709 0.00255219 -0.0288239 
-0.0248846 0.00256273 -0.0291031 -0.0230284 0.00242672 -0.0297198 -0.0197125 0.00253721 -0.0294146 
-0.017561 0.00240024 -0.0298029 -0.0281603 0.00394435 -0.0297201 -0.0259293 0.00391992 -0.029708 
-0.0206857 0.00397126 -0.0298732 -0.0225522 0.00416592 -0.0296411 -0.019114 0.00466507 -0.0293319 
-0.0286641 0.00578557 -0.0294605 -0.0257418 0.00568054 -0.0300332 -0.0237976 0.00546272 -0.0298282 
-0.0197784 0.00630367 -0.029639 -0.0271103 0.0065263 -0.0289379 -0.0229872 0.00726487 -0.0294229 
-0.0184177 0.00746488 -0.0298424 -0.0292963 0.00788656 -0.0288277 -0.0261102 0.00778458 -0.0297775 
-0.0244676 0.0085093 -0.0300003 -0.0214728 0.0078718 -0.0302152 -0.0200209 0.00801376 -0.0291681 
-0.0284209 0.00929772 -0.0296898 -0.0266197 0.00969538 -0.0297508 -0.0241036 0.0100312 -0.0290924 
-0.0227599 0.00902114 -0.0297166 -0.0200826 0.00944102 -0.0302514 -0.0222299 0.0107317 -0.0298932 
-0.0197244 0.0108969 -0.0292627 -0.0177226 0.0102036 -0.0301684 -0.0290435 0.0115904 -0.029082 
-0.0269478 0.0118934 -0.0290083 -0.0255999 0.0113543 -0.0300626 -0.0238133 0.0116684 -0.0297682 
-0.0211863 0.0119574 -0.0290916 -0.0292114 0.0133726 -0.0289134 -0.0264652 0.0136511 -0.0295212 
-0.0195584 0.0126839 -0.029334 -0.0179657 0.0128667 -0.0301352 -0.0236978 0.0142598 -0.0290114 
-0.0207633 0.0138556 -0.0299617 -0.0190226 0.0143752 -0.0296309 -0.0292297 0.0158854 -0.0289015 
-0.0270714 0.0156111 -0.0288954 -0.0220527 0.0149242 -0.0293108 -0.0204785 0.0160145 -0.0302201 
-0.0257936 0.0163318 -0.0299222 -0.0240208 0.0165917 -0.0298172 -0.0222267 0.0165076 -0.030145 
-0.0179272 0.0164905 -0.029554 -0.0285981 0.0175377 -0.0295147 -0.0252663 0.0177697 -0.0289985 
-0.023035 0.0180387 -0.029316 -0.0209411 0.0176189 -0.0295606 -0.0192778 0.0174739 -0.0302216 
-0.0291953 0.0192031 -0.0289314 -0.0243744 0.0192109 -0.0295632 -0.029512 0.000894215 -0.0286012 
-0.0256307 0.000895915 -0.0280164 -0.023539 0.000899717 -0.0289195 -0.019939 0.00126265 -0.02817 
-0.018281 0.000897541 -0.0287581 -0.0301199 0.00245723 -0.0279663 -0.0232314 0.00237402 -0.0279393 
-0.0184025 0.00259815 -0.0281874 -0.028388 0.00290848 -0.0277817 -0.0216092 0.00292845 -0.0287347 
-0.0200897 0.00374409 -0.028137 -0.0295403 0.00405104 -0.0285747 -0.027942 0.00478855 -0.0281524 
-0.0262744 0.00407435 -0.0279514 -0.0245013 0.00427565 -0.0286765 -0.0215791 0.00474571 -0.0282444 
-0.0291863 0.00637766 -0.0278495 -0.0256667 0.00574693 -0.0282064 -0.0231452 0.00594359 -0.0282229 
-0.0199166 0.00556702 -0.028005 -0.0180576 0.00602918 -0.0288205 -0.0246987 0.00709936 -0.0288965 
-0.0215094 0.00645761 -0.028793 -0.030488 0.00872119 -0.0275708 -0.0272775 0.00843001 -0.0285734 
-0.025418 0.00883081 -0.0284891 -0.0236752 0.00845976 -0.0282759 -0.021788 0.00821017 -0.0284406 
-0.0186553 0.00777049 -0.0280042 -0.0296049 0.00997158 -0.0285166 -0.0211018 0.00982744 -0.028826 
-0.0187236 0.0092447 -0.029032 -0.0276856 0.0103564 -0.0284379 -0.0257704 0.0105912 -0.0284465 
-0.0227922 0.0108714 -0.0281989 -0.0302507 0.0120326 -0.0278289 -0.0244005 0.0115476 -0.027787 
-0.0180524 0.0115031 -0.0289692 -0.0270296 0.0133764 -0.0278437 -0.0249197 0.0129437 -0.0287793 
-0.022808 0.0127239 -0.0287148 -0.0212751 0.0135553 -0.0282706 -0.0178817 0.0132256 -0.0283798 
-0.0301089 0.0146179 -0.0279756 -0.0282983 0.0146341 -0.0280165 -0.0254002 0.0149291 -0.0288562 
-0.023644 0.0158729 -0.0282166 -0.0203698 0.0150946 -0.0286814 -0.0173443 0.0150939 -0.0285589 
[...]
POINT_DATA 10000
FIELD FieldData 7
id 1 10000 int
2207 6520 6150 9620 2502 6394 5030 4493 9923 
7736 9852 4615 7483 6289 2240 8846 9795 9246 
8913 9639 2226 1441 6022 8099 8518 2356 4639 
9941 9693 9968 7455 5274 146 5764 7376 8021 
825 9987 6386 9402 9529 8268 7093 774 6727 
287 9933 2289 7021 8550 5769 3053 8873 8410 
1008 9332 9985 9948 7930 1329 9915 7811 5741 
8211 889 224 9602 5122 2023 8786 3376 7310 
1126 3395 9575 9229 8765 7189 5010 598 6264 
9458 7272 2821 2768 8946 1026 6067 2039 4387 
7233 9753 8772 4232 4271 9248 6760 504 9736 
7777 8967 9579 7958 4221 9747 5055 3197 1829 
7986 9659 9608 6411 7359 9572 9522 442 5025 
6296 5429 260 758 4786 4439 9694 7485 6437 
9894 4994 363 6235 7512 9851 6505 7460 9544 
4190 9520 9459 8074 4916 4399 9245 3473 1086 
9065 7628 6501 3666 1764 6035 9198 9789 3432 
6046 5474 4026 7737 9863 9757 9069 2348 6430 
9873 8128 9415 5765 6577 1754 9243 2790 8783 
9765 6681 528 5230 7449 8026 1714 1088 4783 
8776 5051 9316 5532 3864 2387 9908 9376 6163 
1063 4007 565 6279 9920 917 4023 9384 8352 
1245 2192 7661 3741 6023 9282 7236 4940 818 
8577 5434 5243 7814 5730 2828 1037 9036 9410 
8881 2108 823 6024 9088 9148 604 9600 6660 
971 2724 7586 7897 7111 6459 9179 9550 7855 
6280 1615 1543 508 7709 7734 8421 303 3011 
7498 9846 9656 320 8006 8203 7579 1413 24 
8219 9389 9557 9567 4365 2538 7158 2241 3077 
6161 8424 9444 2008 9199 6031 8756 6319 3136 
9913 8158 2878 2577 595 1550 8277 9862 4450 
4815 7508 2347 1076 6409 9561 2489 4582 3467 
9005 5069 7445 6985 4336 9085 8671 2603 2478 
9759 6450 6911 8364 3908 4573 9118 9645 301 
7808 2652 2055 8986 7873 2701 1118 9405 1258 
7278 7573 3896 2706 3100 5011 6051 6748 9225 
5836 4690 1850 6899 9511 1758 261 6210 4775 
477 8034 9545 9638 6680 801 1536 2517 9652 
5428 5072 6078 5139 19 8093 9838 6793 4887 
2680 4622 377 3441 5408 6762 1387 1240 9348 
9825 2449 290 6587 8828 1783 4744 2700 5327 
5774 4604 3149 639 8812 9716 1263 6088 2433 
907 7133 1506 4143 6141 9580 9898 8433 4265 
1147 8397 3540 8779 7156 8342 5528 5965 9500 
1769 6749 5129 8184 9914 3180 2911 2426 2002 
7386 9857 8486 7371 1384 3 6876 3809 5346 
4459 9732 4613 4376 5370 7170 2363 5519 5662 
9842 2555 8004 6253 8075 8965 1777 6212 3529 
3963 297 574 6866 9855 8824 1570 1878 5417 
3917 5196 1411 9218 4078 1611 5036 4945 1418 
632 8 3219 9687 4807 9116 2875 9276 2328 
4723 7626 2942 6011 203 3176 5636 9265 3584 
2567 9832 20 6928 3071 6098 9002 3735 6449 
9556 2527 5124 4987 9976 9539 1816 9261 9281 
5814 8685 3750 2372 8000 6068 7996 1763 1003 
7694 5423 9551 6116 1427 3404 8867 7894 1665 
6101 85 4088 688 9653 9439 1152 430 9343 
9696 6998 1112 8771 5420 8673 8631 7119 7084 
9911 9056 860 8195 1861 3210 7164 5427 5034 
2365 5883 8178 5359 7784 6759 8329 1820 9320 
3196 3765 2987 8149 3675 1279 1654 3283 9903 
8385 4736 1907 830 3912 7050 3224 6395 2877 
3354 1406 800 1388 6757 4935 7719 6299 6719 
927 5401 77 7092 685 4207 4769 634 1029 
3515 673 345 2892 1179 8612 2910 2756 7421 
3411 9906 9345 457 3862 9984 2270 9871 4990 
4714 2 3204 9827 3096 6201 25 8412 1875 
5500 3123 920 8043 3092 9023 75 5309 8808 
9671 2258 4590 995 5763 1035 9546 9782 3262 
2340 2156 5398 3511 1787 5695 6440 7063 8869 
190 9662 8576 5870 3413 7835 5963 3052 4703 
5911 8284 8347 8428 2718 7462 898 2213 1712 
2797 1946 6817 4951 8292 2429 2105 8564 9479 
6265 6655 7921 6146 7052 6470 1660 9633 1713 
9234 4505 5610 83 2333 5877 9800 1367 4513 
7331 591 8964 1283 3757 1109 4840 3111 1359 
6823 8579 1637 2546 5873 9564 1200 2135 9137 
5397 9559 1011 7516 1273 2488 8661 5022 1853 
3049 1092 2791 1315 9815 1138 622 630 8373 
6602 6385 4914 2944 8960 2949 8444 2722 7600 
3635 3253 7465 208 9766 8287 666 5791 2994 
3469 4107 8566 4298 5162 8468 6414 5497 8498 
7587 198 2214 4169 5464 6283 4846 9582 5829 
2419 8972 6618 5638 4999 832 5276 8590 3998 
7051 2442 4594 5461 126 9264 9364 5439 112 
3094 7523 6771 481 6827 8539 1393 7124 6013 
9521 293 9922 9834 3797 5350 9446 6802 7576 
7495 3644 4071 2130 4440 8665 5969 3922 1083 
8532 8632 9553 9549 9358 493 7470 4607 8910 
6699 6071 3774 9142 4754 8582 738 3610 3241 
6784 222 1839 8637 6578 4518 1004 9001 9046 
9981 2681 6977 385 7867 7055 9938 2287 4535 
4145 6783 3097 5976 7239 716 5021 2882 9098 
7979 641 1920 1811 4979 7259 4981 2269 4730 
9431 6121 90 6975 7291 107 3942 8616 8522 
6813 6112 9480 1917 9729 4752 5186 9967 7440 
1039 6682 2907 9881 7388 5212 7044 7260 5471 
2049 4163 4632 6674 7318 7770 288 918 3597 
5149 7361 9998 3771 3836 2144 9196 5189 9965 
5065 4917 1895 5978 5301 6077 1782 4928 5957 
5899 9255 8257 7776 2398 2210 7619 7477 578 
9604 3528 225 8801 5235 6626 6287 4054 3165 
406 7905 4944 9610 2520 2005 4507 5882 8966 
7305 6062 4478 7228 9537 6034 4921 6943 4527 
7426 8474 5379 6424 30 3637 6554 7999 5050 
8255 5272 6499 9583 8711 8758 1587 9163 3014 
8246 2134 9571 5140 4668 7058 840 7805 9910 
9856 5406 9931 2176 3338 7985 1215 9681 3542 
4209 3561 3465 6053 3830 6318 8372 2912 782 
5756 4927 4932 256 9637 8106 6365 7379 2004 
3793 7029 9791 8615 398 6958 1499 4123 1541 
8162 7255 9597 1799 3186 4297 1905 350 8825 
6584 9606 3480 4715 3966 2822 4770 6686 5590 
7505 2898 4854 471 1496 7362 6616 1870 750 
2256 8958 788 7546 4062 4818 9064 9995 1417 
8931 854 7656 5825 8348 5640 1818 1270 3748 
6346 5409 4197 7801 6519 3651 9220 1567 548 
6541 7575 5928 2299 3326 5161 7707 2190 1786 
3951 7501 731 8701 4249 8877 7149 8270 5477 
3455 6685 1399 8324 4110 2228 5556 3348 4080 
4247 510 6755 7723 9731 6048 2054 921 4294 
8495 6462 8655 5537 5043 6629 2101 9828 1897 
8236 1527 9144 4356 8769 7320 6263 5655 5134 
541 2441 6955 2304 1911 850 4119 9090 5475 
862 680 7030 6226 9378 4521 1165 8942 5084 
1448 5299 3021 5255 9132 6162 3848 8015 7765 
5804 5705 7217 2215 2983 7672 3566 2644 8207 
3943 4567 780 3360 4599 5987 6546 8636 5666 
4583 2737 7342 9454 93 104 3746 2283 8657 
5994 9831 2515 8493 372 9366 8973 1830 2571 
5613 6117 3521 6164 6689 8744 9972 4165 3595 
5241 8282 5553 5859 8748 9945 3064 4838 7702 
3768 6604 8420 9334 8609 9288 4992 6739 8452 
186 2022 8938 6697 3160 5776 3387 2871 9960 
9147 3081 9150 210 8987 8188 5208 6493 65 
425 1612 5611 14 6999 3827 2638 1467 3101 
8367 3384 2142 5533 4045 9143 3901 9595 6403 
4789 3377 5219 3237 7896 3080 5440 2376 7561 
2265 7242 2776 5520 7892 2977 4253 353 6507 
5621 2474 8400 3415 627 586 3820 7925 5773 
8299 8451 8002 3200 689 5053 8508 5678 8740 
8596 9955 9532 9697 6552 3688 7127 5273 9725 
1465 4117 8001 8147 1585 7439 3588 1863 6854 
3731 3086 318 705 4196 7584 7816 7339 9492 
7360 3039 8797 2557 2264 2069 6664 7542 5157 
2569 480 1368 3351 875 6249 7898 6670 7688 
9542 7346 6172 296 559 8667 8935 9515 8857 
3001 8441 6204 7047 9273 781 8189 1636 3295 
2834 8377 733 539 4148 5247 3195 5238 9055 
9607 999 1332 7943 5492 2981 7391 676 3325 
8096 6594 9528 501 9654 1598 7270 2704 7691 
8764 8595 8892 6377 356 9951 1052 7888 492 
2320 3719 1159 9780 2043 813 743 7387 8712 
6020 9805 992 2253 1801 2528 6597 7429 8311 
6463 3564 582 6548 5367 3339 5903 9776 6969 
1899 4115 2084 1093 8565 3850 1326 8817 7910 
6809 4542 1226 310 2711 5252 1186 2968 8762 
7569 9084 3808 435 5012 7032 8713 6474 3336 
2195 8614 8206 7891 8359 5102 3449 3794 5522 
7939 8215 5086 4937 15 6656 6645 9082 1978 
538 1234 1582 1328 6588 4943 4310 4487 2492 
5988 7903 8995 212 9626 6367 5922 3346 7142 
8415 9907 7967 7590 2076 8832 8524 6392 389 
276 1812 205 6931 5915 7006 9367 152 3463 
8445 6549 9921 1581 2585 5197 7580 5181 9406 
6495 8693 5304 5996 7753 5038 6786 9524 6906 
2263 1135 7657 5048 3350 9614 9527 2820 1280 
6709 6037 6873 4352 5850 9952 2364 958 4426 
7307 8092 9690 9497 2525 4704 2886 7017 7677 
6734 9835 9724 4592 2396 5289 2831 9010 8067 
9040 9012 158 9957 8929 6746 615 3804 1961 
57 8333 1446 7115 6490 6728 9339 2016 1810 
8032 6828 2369 525 8694 6579 4192 2982 5848 
9272 7568 3730 3089 5802 7454 707 4610 7109 
5414 7682 9465 9124 7180 4059 4411 1521 2757 
8090 2764 8775 9764 3762 5983 202 5253 5300 
9574 1410 3650 7090 6428 8376 1235 6522 5058 
6946 5319 8912 9741 3940 6381 3407 3167 4620 
8644 3732 9328 5052 3353 7490 4170 7928 8573 
5577 1464 7271 6001 5386 9631 6756 464 8709 
7249 7824 4938 9233 9401 7550 5946 4850 5385 
7865 7193 2512 2841 6064 7427 7791 2161 5502 
8083 6193 7974 5209 1719 6808 4572 5547 3034 
4200 9310 7081 9762 9534 6432 8750 7412 5897 
6205 7764 6947 9259 985 7162 4980 5955 8141 
2261 2643 6950 8309 5786 5128 7533 1500 7908 
6104 9647 7336 5119 9472 3276 2513 3120 6110 
1956 1449 3331 6790 6500 4344 4230 51 5789 
9100 7747 799 1610 1033 1735 8503 4398 4358 
3118 4223 2646 6545 6967 8724 3041 6744 3340 
2560 3594 9021 8243 7795 6903 7983 6492 5788 
4563 3446 767 9591 2597 1991 9509 5975 719 
6872 746 984 5724 9342 6454 5906 9628 3490 
709 8478 7543 8926 8228 6465 4442 5782 4329 
2578 6061 4124 7687 9748 1608 3833 7562 7054 
1494 6183 7464 9683 5618 9850 3991 6874 4731 
128 7478 5335 7323 8249 8402 9189 7632 5558 
6721 1229 1556 537 3845 9241 9087 6129 6353 
9927 8788 127 600 2936 2499 5412 5465 9207 
6003 4378 167 996 5615 355 1148 4061 1965 
6293 1517 9848 5591 337 67 4413 3873 9312 
6649 7283 879 7235 3615 6108 5827 3628 4875 
9346 5123 9787 7160 2787 5852 810 5704 9786 
1319 7551 2252 8023 5748 7771 8830 911 4240 
8179 9837 6207 98 2759 4477 3330 7724 9024 
1757 5364 8687 2672 3085 2482 6214 1042 5878 
8177 5291 6007 1343 571 4382 8703 5717 9593 
5579 274 5169 2341 3899 4984 3882 7591 2490 
3138 7827 9767 6134 3931 2545 1053 6086 6559 
7934 8872 4424 521 2024 8244 5383 8541 6043 
4968 8399 6637 8434 9074 8417 5060 9751 9896 
9267 4495 4976 1278 8670 4371 9038 3897 8483 
6237 9733 9798 5205 183 9158 6825 5680 3640 
8678 5393 5462 2894 4901 2314 2744 5110 6191 
4908 5447 7969 7984 6974 4320 4314 5200 7644 
7143 6091 7535 33 6143 6278 6668 5131 8217 
3028 5823 3992 7023 7700 9667 1867 3229 607 
9380 7527 8068 6738 6511 1488 3139 2979 2406 
5551 9216 9457 5729 5087 9707 4003 4042 2591 
7178 5339 6857 5144 5847 7937 8504 4044 368 
5642 8222 5790 8669 633 7425 3457 3025 3745 
4366 1424 6667 5091 6716 727 656 9145 7153 
9814 5111 1216 81 3818 9381 8160 9649 3607 
5653 2564 4551 5535 4674 6930 9752 8945 4412 
3722 396 530 9103 8592 7117 7132 6766 9299 
3337 4556 2268 166 7022 770 1798 7476 3776 
7566 3687 1923 58 5754 6758 8933 7438 2773 
2962 8497 543 5646 5457 6912 3382 3416 2324 
7330 5395 5623 9880 7950 1620 865 4401 5838 
7114 1694 1683 7086 7057 9714 4006 8749 1510 
6000 8842 4161 8202 6536 831 4472 8176 383 
7911 5323 7712 2775 7946 3459 1746 6475 111 
8525 199 8389 9722 7769 4890 5696 8805 4181 
9774 2166 8448 5792 844 9566 9854 3604 6114 
2316 8640 3332 5337 9035 9576 7853 3819 6696 
6506 433 1310 7444 9888 5288 9618 1047 299 
8909 5538 397 6936 6363 4719 2313 2854 8531 
2879 8559 2037 1002 6525 2862 8326 9826 4830 
2183 1641 5863 8350 5179 8876 1133 1653 6085 
6891 7316 5046 9121 6123 5787 2437 2480 9058 
2881 7636 446 6608 7844 4339 9049 5215 5275 
2438 3938 872 5476 3753 7534 5374 3381 2483 
5098 1040 8072 1351 4498 4362 12 6092 1717 
8955 8741 8919 8009 9494 247 1684 1219 8815 
7448 9677 8011 1780 9723 876 2454 4924 4239 
1745 8517 9889 7413 2276 7971 6406 1132 1097 
5404 2091 7817 4591 6794 5884 9601 1431 1210 
7433 2115 4427 2000 8289 6473 7914 6372 1331 
9258 9217 7854 2660 3088 2647 881 103 8737 
6281 7667 5143 4952 6337 488 5000 8917 9219 
165 1987 9710 1696 2833 5387 5293 9641 7223 
9912 7942 132 2815 5711 6776 6369 8063 8337 
2863 84 3962 2743 7437 5659 9991 8014 5675 
7405 9565 7933 8745 8720 2362 8115 8633 4538 
9932 4936 1547 2194 1313 5399 7459 7683 7819 
3466 3778 7487 7284 7083 8467 7622 2122 8233 
9416 1174 4266 1504 7957 6864 4104 6513 1379 
5785 9623 8022 1438 4848 3406 6334 3215 5679 
2311 4814 6718 8800 2175 8854 2021 4970 89 
6917 8506 9570 2599 8555 3154 1864 7593 7266 
2865 9562 1381 4168 138 5066 3743 6610 8545 
6880 8571 8623 4259 6606 6433 8380 2552 1740 
8341 2352 272 7302 9588 8747 6310 1054 908 
8320 5527 9202 9390 1350 9172 6671 4834 8728 
8484 4047 4737 2685 8017 6688 6694 9700 7226 
9869 3182 3987 852 6665 3083 426 9205 9568 
3513 1854 6568 9211 4417 5298 7420 6004 8794 
5173 7932 285 8488 8879 3213 9244 5936 3712 
4408 8259 6593 5999 563 5496 8201 4323 7349 
7205 3796 4100 1836 6187 9552 5604 6700 5054 
629 5020 5673 6328 8782 2573 1693 3926 1962 
7648 2410 9925 9493 5326 376 4430 118 6695 
620 5405 2297 2840 6140 9427 8101 8729 3184 
40 7929 858 9836 5713 6648 6717 515 418 
8809 1232 9133 5954 1524 2073 56 7473 4683 
5032 9586 6572 5626 5204 3685 1176 5950 3787 
7788 9498 3109 5265 4915 909 110 7625 6537 
535 9909 8500 7126 9742 5316 308 9181 3104 
5188 6661 5085 7909 5948 9433 5376 9419 7175 
7651 7730 6271 6030 8836 3621 3324 7451 9844 
8625 2726 346 8094 2848 4438 9134 9193 7592 
6224 9983 7241 4536 1308 72 5712 5213 6016 
786 6402 8802 315 1891 8839 5796 4492 8129 
9151 7005 6093 156 8221 5120 2466 1443 724 
3834 201 4285 7286 8139 2146 1638 6939 7920 
7500 7334 7380 4877 8053 1670 9768 1724 400 
218 3736 6066 444 6684 6557 6466 8535 8692 
4308 503 5368 2746 1084 6181 7869 9891 8458 
5344 5670 3798 9262 3739 7617 8837 6574 8084 
3009 7951 2400 8218 6010 546 4758 6850 6213 
1692 1222 5076 8256 1355 6504 4105 7010 1873 
9866 5116 8934 8456 3056 9020 2694 5862 8649 
4461 6839 4451 1254 6730 6893 9165 8461 470 
5817 6913 7603 1352 5378 7367 2227 2468 3831 
7074 9237 923 2375 8003 7673 1699 4324 69 
3221 3567 4939 6496 3105 9436 821 6976 8319 
9804 6706 6137 4198 2064 9119 6142 6918 6484 
2518 5096 3414 4055 221 2507 6479 9156 9443 
3520 8429 7782 8548 9435 7396 294 7414 611 
3995 8391 6255 2904 9003 5923 4261 3054 9882 
6886 5103 5722 2817 2626 7714 115 9192 7436 
6865 4757 1835 3255 9590 1698 4154 9326 1700 
7171 4743 9943 3887 8810 7221 9937 9052 8963 
9934 9182 1726 8482 511 5283 4517 9210 1943 
1356 5468 4141 5193 8556 6884 4612 8298 8387 
4404 4539 4032 5596 2951 5195 868 8952 1967 
4043 5924 5688 2498 1877 4858 3646 740 8140 
5203 9890 7947 8081 4961 5942 755 4394 5314 
3121 9311 4177 3008 2918 1116 7269 8375 649 
7653 2589 9362 367 5982 9041 2412 8818 962 
505 9477 749 8080 5574 5221 7901 3057 6754 
1295 4331 8416 9899 7469 2155 6901 9060 6737 
7793 4392 8198 5888 6750 497 4018 9939 4586 
9616 9113 9792 9973 8266 4906 5155 8708 7265 
5486 964 5886 1851 3302 6765 8624 1721 8227 
8269 2082 6 2184 3412 1048 6412 7976 8393 
580 6230 6017 5565 1618 9946 6570 4139 1105 
120 3544 5826 3851 2926 3996 7231 8784 8457 
1439 802 1901 2456 1498 4753 3832 4670 5137 
8465 7173 6558 7373 7352 2278 4195 3682 6018 
3713 9253 8731 8354 9027 6247 912 5141 1937 
8278 3038 1470 1099 1789 500 7138 8489 6562 
7948 9730 3812 2653 9206 6780 4041 4598 5517 
4547 6613 6165 8390 819 9066 7529 9878 6070 
313 8059 5114 8992 9462 9820 9964 8853 6028 
3678 378 572 9092 1631 9958 6973 7621 7194 
6221 7370 2745 3601 1925 1428 1747 6457 6644 
6390 9464 4255 5505 2196 9672 1405 4257 1163 
4523 9490 5418 8643 6885 8608 7798 792 2025 
9761 3058 9969 4178 9127 2984 6638 7009 8062 
7531 2061 1155 7428 3907 833 2172 9161 3278 
9599 6740 9634 5281 2952 545 2809 4211 6847 
9691 9089 7915 7595 3495 5285 6477 7028 9775 
618 569 9785 5493 756 7390 9061 5812 9540 
682 2771 8584 7492 1036 6426 6596 4788 9917 
9829 5702 177 1260 8722 5566 4393 6662 9632 
2506 3534 1276 3968 7766 6601 3524 1858 3925 
1041 1302 8273 1950 2026 4768 2029 2784 7641 
6429 1628 2950 2990 1482 4291 6753 9975 4958 
7748 8823 8165 7954 1445 874 6811 2137 8597 
5552 1160 6979 2852 9763 8166 526 6803 805 
2973 3701 4001 2716 4432 3409 8672 6542 6373 
2408 2464 7494 4090 5267 6877 5302 5008 2361 
5388 3140 5690 795 2453 5109 7721 5258 6055 
694 340 8650 8922 5561 4997 7250 6275 3814 
1775 7069 9474 5521 2584 2246 5045 7733 9228 
5371 893 2031 5324 7393 5499 814 8523 2179 
6675 8209 3700 5548 6301 2553 8473 8212 6339 
155 9547 5171 317 9806 3477 7956 6025 9445 
2395 3209 4278 4447 8459 5718 7049 8707 472 
7016 2792 7315 7520 2997 6956 6925 6938 702 
1172 3112 3605 695 6371 8049 8970 4780 7924 
5916 9277 3264 8155 2796 2234 8286 8205 6222 
6990 8296 7792 5210 1450 7639 1599 1025 3000 
6482 2180 3458 1594 9596 9266 1285 8362 8285 
6351 9059 5710 1592 5736 6801 1655 8262 3737 
7972 6075 3636 8491 3368 9755 3583 5783 7755 
9506 6959 4693 544 7536 233 8697 8408 9666 
5167 1802 4614 3068 7895 9727 6870 7003 5742 
1007 1108 7257 8358 6607 2493 6026 9605 362 
5864 5329 663 5199 1264 972 3773 1371 7965 
8675 9271 8213 1584 7935 4727 956 1461 9919 
1711 8510 2986 4448 5818 6789 8856 9585 9154 
4608 8481 9770 2386 7295 6804 8288 9393 2129 
2041 9636 8726 185 8185 6799 5425 551 9257 
45 8792 9799 9739 8355 3780 9929 9858 3108 
6065 8620 9407 8069 7152 4983 7416 7043 4570 
5573 9577 9399 5616 9720 6417 7088 7220 9824 
6741 8827 5896 1807 9174 9870 5716 7341 9508 
4666 9738 1495 1733 6800 5007 9475 8442 9138 
8161 9029 6849 3927 7884 6076 7407 3496 3222 
5187 6376 5664 5035 373 3343 4144 9525 9990 
3709 2739 7097 4543 6451 5259 6777 4024 2712 
2050 6635 7378 4633 1609 6779 9447 7874 8959 
4580 1995 2092 6703 9598 9514 5839 882 651 
6743 6859 4122 6290 9372 6158 1834 6044 4066 
8558 8796 9679 7681 5851 9505 4654 1128 6807 
3282 9993 1348 7993 4710 8811 7447 6897 6580 
4390 3541 6312 8168 7963 5013 4360 966 7168 
1845 7862 5268 8875 9819 5525 5634 1085 6693 
6941 5270 324 6389 5843 2392 6764 5644 7761 
5437 9760 3988 7842 7219 5472 7713 7829 6014 
3676 6397 8593 6436 8237 6987 5831 8890 3777 
672 6118 8103 547 7530 6954 5183 6659 1080 
8610 2472 8547 9617 5797 5813 7975 6611 516 
5699 6617 6761 6566 9095 9541 8560 9847 931 
2469 7141 2742 7836 8507 2885 9409 8785 891 
1208 2305 2663 7968 7539 897 2327 9822 7774 
5637 5603 6467 412 2368 9516 5524 7514 5810 
7643 3648 4268 8634 9887 10 6623 2404 3858 
7218 5225 653 9808 3137 3547 9779 6236 7703 
7614 5599 2620 9523 7134 6821 5201 7461 7123 
9073 9802 5833 7684 6831 6960 6729 2294 7215 
5854 6378 6350 1291 6106 5049 5262 5781 887 
3881 5940 7629 8666 9737 901 1889 744 4058 
7354 9078 7025 5002 1860 5894 9563 9839 2147 
1346 1902 3835 6711 5211 7952 5250 8979 558 
3799 7893 7351 2315 2532 4483 9026 4162 4191 
8968 3569 4172 960 8371 9956 1171 6027 3260 
7294 8379 6515 6196 7606 5933 8447 9655 9160 
8261 7912 757 2153 8717 9221 9905 9468 9383 
6944 5900 8197 6408 4672 8419 2516 783 6420 
6364 7150 7345 7834 7130 6483 7917 8860 8330 
6423 9186 784 5808 9657 5619 8283 5029 1454 
8254 9329 6878 5234 6646 8046 6270 9422 9107 
723 7757 7103 6246 3721 1372 7281 1657 7292 
7070 8780 1896 9286 28 9986 7627 6509 5967 
66 7858 590 4841 1447 9734 7729 3890 9180 
7306 9051 8659 1224 7871 2120 8997 6151 9818 
9236 9057 7136 9876 267 243 6102 6964 9781 
8743 4797 4546 9625 5372 7276 5320 8132 1770 
170 7760 8306 6663 619 9643 6707 8902 6846 
6704 2284 7312 8948 9749 9231 4353 9809 7846 
919 4884 3168 5325 7945 3813 9678 9197 6200 
7011 6445 7998 5391 7468 8953 409 6589 9989 
9558 8247 3451 5104 5990 5176 6182 7763 7195 
7555 3476 403 8192 9612 7578 5605 5444 5463 
5824 6678 5037 8848 7633 8588 2401 6708 5126 
3247 6883 7686 1199 5569 3934 5077 9302 5544 
8985 1535 5081 7872 9437 2669 2254 613 4402 
3775 7631 9892 2500 219 6109 9279 9793 6133 
6710 323 3923 3483 9111 7089 5964 7108 5625 
8091 6972 2965 1191 1046 3665 7860 3275 1566 
7563 9356 4381 3512 900 7690 9043 6217 8073 
6862 6292 5905 9813 2895 4463 9708 9904 3593 
4274 1298 4974 7395 2767 9077 9603 8544 826 
2306 9664 6672 2536 5743 6882 793 8018 9721 
6148 395 5728 7369 5692 5939 3090 2062 3608 
6937 7472 3664 967 144 599 7843 2805 953 
2319 5306 3652 3744 8450 2345 9879 3403 4299 
5277 4860 1389 3143 2045 2159 7463 2028 3841 
1575 6508 8061 9935 6994 2496 4484 9901 1317 
4941 1792 4695 7409 4761 7356 2913 9184 1781 
5735 119 855 6127 3319 8864 2317 8065 9740 
9489 6054 2282 9713 8331 2844 4097 7870 1403 
314 3616 4963 3630 2935 1883 2688 2189 4384 
3921 8301 6119 109 1826 776 8957 6347 8136 
4038 703 728 3717 9385 9099 5177 6352 4575 
5217 8626 1297 512 6282 9408 3287 2249 9481 
8977 6057 3311 4359 3141 6642 4849 3316 843 
8738 8940 7174 2843 8704 4587 2816 6461 5441 
1020 2932 3349 4552 2753 2870 2595 1013 4566 