# vtk DataFile Version 4.2
Generated by LIGGGHTS
ASCII
DATASET POLYDATA
POINTS 10000 float
-0.0188195 0.000889068 -0.0365451 -0.017929 0.00237168 -0.036996 -0.0186046 0.00399925 -0.0366498 
-0.0180046 0.00694952 -0.0369495 -0.0181907 0.00873319 -0.0368581 -0.0179842 0.0105149 -0.0369596 
-0.0182145 0.013629 -0.0368425 -0.0184491 0.0155086 -0.0367266 -0.0185813 0.0173382 -0.0366604 
-0.0177862 0.0191631 -0.0370608 -0.0203952 0.00097905 -0.0356869 -0.0212775 0.00251019 -0.0351579 
-0.0191471 0.00242663 -0.0356525 -0.0202412 0.00384366 -0.0357731 -0.0212325 0.00522456 -0.0351924 
-0.0191895 0.00567103 -0.0363491 -0.0205715 0.0068444 -0.0355878 -0.0187694 0.00715191 -0.0353417 
-0.0197669 0.00847125 -0.0360397 -0.0195103 0.0102463 -0.0360453 -0.0208462 0.0112758 -0.0354213 
-0.0193984 0.0120261 -0.0362366 -0.020683 0.0130629 -0.0355235 -0.0197963 0.0145496 -0.0360183 
-0.020037 0.0166137 -0.0358884 -0.0198058 0.0186401 -0.0360177 -0.0182463 0.0192053 -0.0353321 
-0.021959 0.000898537 -0.0347483 -0.0188013 0.00090785 -0.034757 -0.0226258 0.00236316 -0.0339602 
-0.0199633 0.00264775 -0.03394 -0.0224031 0.00407052 -0.0344625 -0.0187148 0.00411028 -0.0348612 
-0.0231113 0.00565639 -0.0339917 -0.0195366 0.00568518 -0.0345886 -0.0177088 0.00579611 -0.0348265 
-0.021598 0.00661507 -0.0341115 -0.0199282 0.00733164 -0.0339869 -0.022806 0.00853896 -0.0342054 
-0.0210945 0.00839693 -0.0348404 -0.0177363 0.0078844 -0.0340723 -0.0219384 0.010015 -0.034753 
-0.0201755 0.00989466 -0.0344106 -0.0183635 0.00920476 -0.0351306 -0.0233988 0.0110082 -0.0337967 
-0.0199577 0.0121919 -0.0341294 -0.0185926 0.0112531 -0.0348234 -0.0227409 0.0129405 -0.0342345 
-0.0187792 0.0132743 -0.035105 -0.0219047 0.0144841 -0.0347748 -0.0203752 0.013932 -0.0339884 
-0.0205289 0.015655 -0.0344547 -0.0189034 0.0148992 -0.034351 -0.0229168 0.0161601 -0.0341185 
-0.021586 0.017005 -0.0349831 -0.023247 0.0179138 -0.0338937 -0.0189246 0.0175812 -0.0348632 
-0.0221663 0.0191649 -0.0346179 -0.0203839 0.0192045 -0.0344168 -0.0238552 0.00114682 -0.0334757 
-0.0221135 0.000896895 -0.0329605 -0.0203762 0.000895305 -0.0338968 -0.0188372 0.000896499 -0.032968 
-0.0181998 0.00239348 -0.0337244 -0.0239172 0.00349154 -0.0334262 -0.0213921 0.00333591 -0.0330987 
-0.0189074 0.00391866 -0.0330868 -0.0245178 0.00512976 -0.032987 -0.0226619 0.00453109 -0.0326689 
-0.0207545 0.00496703 -0.0334823 -0.0184824 0.00636244 -0.0333049 -0.0238145 0.00723489 -0.0335021 
-0.0214597 0.00809996 -0.0331113 -0.019065 0.00865953 -0.0331451 -0.0241046 0.009369 -0.0332925 
-0.0223304 0.00979412 -0.0330119 -0.0176411 0.010148 -0.0337732 -0.0244322 0.0122725 -0.0330488 
-0.0216715 0.0115468 -0.0338464 -0.0180462 0.0117322 -0.0330279 -0.018838 0.0133275 -0.0332904 
-0.0249063 0.0139702 -0.0327044 -0.0234855 0.0144989 -0.0337283 -0.0217852 0.0143898 -0.0329768 
-0.0244862 0.0159666 -0.0330152 -0.0199554 0.0151934 -0.0327757 -0.0214518 0.0161651 -0.0329997 
-0.0188405 0.0164418 -0.0334365 -0.0246001 0.0177269 -0.032673 -0.0214154 0.0179098 -0.0334481 
-0.0196303 0.0180451 -0.0332751 -0.0175805 0.0176663 -0.0329608 -0.0225274 0.0192002 -0.0328653 
-0.0182896 0.0192051 -0.0335426 -0.0252777 0.000897107 -0.0324114 -0.0234411 0.000892917 -0.0317526 
-0.0265511 0.00256174 -0.0313727 -0.0244184 0.00243013 -0.0320385 -0.0226264 0.00243382 -0.032165 
-0.0206835 0.00183108 -0.0324017 -0.0190038 0.00244281 -0.0320642 -0.0255293 0.00382748 -0.0322109 
-0.0239685 0.00438475 -0.0314446 -0.0254545 0.00538997 -0.0313265 -0.0238367 0.00617765 -0.0314424 
-0.0215994 0.00546088 -0.0315116 -0.0195817 0.00524123 -0.0320748 -0.0175854 0.00634585 -0.0317513 
-0.0266605 0.00762077 -0.0312822 -0.0251985 0.00674309 -0.0324731 -0.022451 0.0067456 -0.032438 
-0.0206609 0.00660162 -0.0325262 -0.0191263 0.00731265 -0.0319214 -0.0253672 0.00852608 -0.0323383 
-0.0235005 0.0082212 -0.0320408 -0.0205575 0.00958729 -0.0326702 -0.0184304 0.0100223 -0.0321693 
-0.0254833 0.0103527 -0.0322467 -0.0237125 0.0106231 -0.0320763 -0.0214293 0.0110779 -0.0321243 
-0.019717 0.0111733 -0.0326705 -0.0258597 0.0121129 -0.0319494 -0.0222083 0.0126607 -0.032539 
-0.0205284 0.0132706 -0.0323295 -0.0190242 0.0125161 -0.0316975 -0.0233841 0.0137786 -0.0317613 
-0.02668 0.015165 -0.031266 -0.0247529 0.0152034 -0.0314116 -0.0229741 0.015476 -0.0321846 
-0.0178914 0.0154526 -0.0318686 -0.0258138 0.0165963 -0.0319819 -0.0187303 0.0170347 -0.0317449 
-0.0226497 0.0173029 -0.0322948 -0.020619 0.0174567 -0.0319012 -0.0255188 0.019204 -0.0322241 
-0.0238264 0.0191957 -0.0316239 -0.0207703 0.0192058 -0.0323944 -0.019044 0.0190977 -0.0319168 
-0.0278308 0.000897256 -0.0302459 -0.0261372 0.000896742 -0.0308401 -0.0216649 0.00089699 -0.0312215 
-0.0195543 0.000898455 -0.0313228 -0.0176865 0.00089479 -0.0315982 -0.0278974 0.00269053 -0.0301866 
-0.0234738 0.00262973 -0.0305233 -0.0177093 0.00250001 -0.0307967 -0.0251184 0.00339532 -0.0304816 
-0.0222766 0.0038657 -0.0310476 -0.0206055 0.00337095 -0.03149 -0.0186691 0.00397331 -0.0311792 
-0.0268695 0.00431053 -0.0311148 -0.0202253 0.00478412 -0.0304621 -0.0273458 0.00602223 -0.0306816 
-0.0228229 0.0053539 -0.0302046 -0.0188971 0.00598252 -0.0305808 -0.0249007 0.00755395 -0.0309009 
-0.0221602 0.00701796 -0.0302616 -0.0233984 0.00831871 -0.0302551 -0.0210752 0.00791561 -0.0313725 
-0.0175779 0.00812273 -0.0315102 -0.0277463 0.00897152 -0.0303255 -0.0260587 0.00926181 -0.0308571 
-0.0241495 0.00998748 -0.0304585 -0.0225405 0.00954249 -0.0312473 -0.0208109 0.00988671 -0.0309175 
-0.0193187 0.00889835 -0.0310938 -0.0175579 0.0096871 -0.0306335 -0.0275373 0.0110642 -0.0305185 
-0.0256374 0.0109836 -0.0305716 -0.0193509 0.0109284 -0.0309265 -0.0243191 0.0124049 -0.0310685 
-0.0227113 0.011601 -0.0309647 -0.0211349 0.0124415 -0.0308624 -0.0174953 0.0113262 -0.0313704 
-0.0272337 0.0128141 -0.0307905 -0.0256629 0.0136855 -0.0311082 -0.0216981 0.0141298 -0.0311979 
-0.0191831 0.0142849 -0.0314279 -0.0232668 0.0150166 -0.0304282 -0.0217989 0.0159307 -0.0309063 
-0.0200193 0.0159472 -0.0311381 -0.027169 0.0169028 -0.0308422 -0.0254932 0.0163345 -0.0302315 
-0.0238638 0.0167314 -0.0311043 -0.0251791 0.0179498 -0.0309811 -0.0215743 0.0176383 -0.0303943 
-0.0268664 0.0188134 -0.0311085 -0.0220565 0.0192029 -0.0311375 -0.0203264 0.0192042 -0.0306544 
-0.0179413 0.0192024 -0.0305059 -0.0291242 0.000898746 -0.0290011 -0.0252356 0.000896649 -0.029291 
-0.023576 0.000921636 -0.0299702 -0.0219184 0.000896707 -0.0292813 -0.0201577 0.000906238 -0.0296317 
-0.0183893 0.000892758 -0.0299515 -0.0262502 0.00235595 -0.0295529 -0.0244914 0.00251581 -0.0290437 
-0.0216564 0.00239317 -0.0302334 -0.0195364 0.00250925 -0.0303368 -0.029358 0.00372033 -0.0287667 
-0.0231545 0.00386483 -0.0292579 -0.0212782 0.00382356 -0.0292159 -0.018106 0.00355913 -0.0294038 
-0.0281844 0.00449882 -0.0299152 -0.0262218 0.00448798 -0.0294568 -0.0245248 0.00495308 -0.0298095 
-0.0292357 0.00552439 -0.0288863 -0.0273925 0.00574367 -0.0288826 -0.025807 0.00620901 -0.0297674 
-0.0206796 0.00610387 -0.0293378 -0.0175929 0.0052751 -0.0295661 -0.028473 0.0069641 -0.0296426 
-0.0239978 0.00677994 -0.0295576 -0.0198348 0.00745664 -0.0301639 -0.0175086 0.00702155 -0.0300904 
-0.0265873 0.00780401 -0.029497 -0.0216806 0.00870522 -0.0298798 -0.0184836 0.00846999 -0.02956 
-0.0288198 0.00998953 -0.0293002 -0.0252495 0.00891068 -0.0290347 -0.0200588 0.00931961 -0.0293848 
-0.0265978 0.0100808 -0.029351 -0.0248896 0.0106662 -0.02897 -0.0222512 0.0103997 -0.0296968 
-0.0205421 0.0110621 -0.0295849 -0.0287339 0.0117844 -0.029392 -0.0265059 0.0119951 -0.0293623 
-0.0234056 0.0117198 -0.0293197 -0.0217283 0.0123451 -0.0291693 -0.0188518 0.0116547 -0.0293665 
-0.0284352 0.0135374 -0.0296707 -0.0229532 0.0132808 -0.0300898 -0.0196439 0.0130809 -0.0301058 
-0.0267341 0.0141911 -0.0297585 -0.0246091 0.0138594 -0.0296721 -0.0217139 0.0148217 -0.0294961 
-0.0196672 0.0148416 -0.029772 -0.0180599 0.0137709 -0.0296357 -0.0282268 0.0153097 -0.0298757 
-0.0184366 0.0160547 -0.0302675 -0.0284815 0.0170706 -0.0296296 -0.0269089 0.0162799 -0.0291305 
-0.0239117 0.0163012 -0.0293515 -0.0206883 0.0162974 -0.0295058 -0.0267571 0.0180291 -0.0295051 
-0.0251135 0.0175896 -0.0289234 -0.0235727 0.0182171 -0.0301372 -0.0197066 0.0175528 -0.0303357 
-0.0180312 0.0176643 -0.0295818 -0.0281689 0.0191932 -0.0299282 -0.0250123 0.0192036 -0.029705 
-0.0222408 0.0191411 -0.0293578 -0.0269311 0.000919529 -0.0286873 -0.023647 0.000895601 -0.0281768 
-0.017467 0.000910927 -0.0284094 -0.0302281 0.00244821 -0.0278471 -0.0281874 0.00233152 -0.028453 
-0.022644 0.00236815 -0.0284052 -0.0208626 0.00219013 -0.0285869 -0.0189603 0.00204317 -0.0287048 
-0.025934 0.00336282 -0.0280958 -0.0276623 0.00404024 -0.028265 -0.0222013 0.00520089 -0.0285275 
-0.0196067 0.00436125 -0.0288331 -0.0304396 0.00591123 -0.027615 -0.0257991 0.00555045 -0.0280731 
-0.0238916 0.00566928 -0.0281551 -0.0287355 0.00678049 -0.0277004 -0.0269934 0.00720687 -0.0278513 
-0.0252828 0.00723849 -0.0283919 -0.0225521 0.00701797 -0.0285055 -0.018976 0.00668973 -0.0287874 
-0.0298586 0.00807596 -0.0282453 -0.0280588 0.00840507 -0.0286548 -0.0207333 0.00775842 -0.0286384 
-0.0289718 0.00947795 -0.0275493 -0.0266287 0.00913361 -0.0278302 -0.0235334 0.0094395 -0.0288639 
-0.0215037 0.00935275 -0.0282166 -0.029932 0.0108562 -0.0281753 -0.0280031 0.0109253 -0.0279966 
-0.0262183 0.0110467 -0.0278208 -0.0221206 0.0110263 -0.0280163 -0.0180424 0.0101082 -0.0289623 
-0.0249046 0.0124254 -0.0286393 -0.020355 0.0120378 -0.028055 -0.0299993 0.0126485 -0.0280991 
-0.0279113 0.0127646 -0.0281376 -0.0262214 0.0135475 -0.0281654 -0.0230176 0.0129684 -0.0280855 
-0.0189297 0.0131205 -0.0282102 -0.0295781 0.0143405 -0.0285369 -0.0277515 0.0145499 -0.0283166 
-0.0232991 0.0146417 -0.0286738 -0.0205599 0.0137064 -0.0286925 -0.0179082 0.0146367 -0.028066 
-0.0255407 0.0151029 -0.0287796 -0.0198878 0.0152647 -0.0280436 -0.0295831 0.0161396 -0.02854 
-0.0184965 0.0163105 -0.02849 -0.0289442 0.0177361 -0.0280291 -0.0271398 0.0176241 -0.0278051 
[...]
POINT_DATA 10000
FIELD FieldData 7
id 1 10000 int
6612 2539 4166 2274 2208 1856 3763 2806 1218 
2249 1906 3485 2420 169 4153 3169 4246 1271 
3696 3148 1900 305 809 3946 109 3434 144 
3546 1429 2277 3947 2107 1471 2244 1005 405 
1136 6415 3811 1530 263 227 2231 1303 4468 
3065 4300 3397 5540 3487 1031 8422 6168 1057 
3824 4067 2857 2839 3267 4202 5914 2943 4264 
3961 3960 2916 5261 3357 2199 2418 3424 5534 
1491 4289 434 2788 1972 988 4437 4509 2999 
834 4601 981 857 7155 8715 3383 2336 1824 
2211 7706 3672 1075 4869 9470 4179 4698 6401 
3059 328 3589 3125 939 4330 940 3072 7079 
2588 2102 9486 2561 1846 664 1286 4125 5844 
3405 1123 259 7027 9560 2425 2131 1744 796 
1817 4028 3033 1927 3928 4293 6538 1475 159 
140 3158 399 3362 8834 8304 4085 1538 204 
7154 5232 4755 1114 4899 7913 3783 1773 3454 
5016 3740 2783 1705 1686 4466 6569 1032 4904 
1050 2563 7080 4751 5484 4784 4385 4363 4800 
2475 1487 5059 4215 2664 4480 3980 4741 384 
18 2030 4031 1166 7964 2608 1157 4017 6845 
8102 4316 5952 286 1749 6840 7424 7548 3236 
6267 217 638 1412 5282 7506 3036 8232 3578 
4258 2893 1666 9327 7041 1916 4895 7744 2628 
4626 7442 3430 2374 1785 4212 708 736 4134 
2001 3150 2607 2714 1489 4644 4093 2829 7823 
4631 2384 1518 806 768 1436 1514 617 3910 
518 2150 4204 2286 3156 8315 6185 2491 2197 
7078 6476 5772 5042 254 4435 6081 2725 5039 
753 2236 6491 1963 1068 5721 2373 5278 4263 
3631 7347 5009 3876 3579 4473 4512 692 1194 
5582 3334 4489 1345 9053 7410 935 9456 3518 
364 1127 194 7754 2394 1452 766 8321 2116 
3385 1274 2321 4520 3419 8527 209 3076 347 
2566 278 3159 4920 7794 9942 3880 7900 3129 
2890 6715 7977 2807 7363 8557 9033 5700 7564 
4777 4766 9284 5061 37 8024 2462 5295 5431 
3572 6269 8652 4827 2243 4585 163 47 762 
1771 8264 7036 6080 154 8153 3869 6008 6111 
124 4485 884 312 4252 1529 3386 2382 7303 
2114 3803 8542 2836 4876 2581 3342 1800 1111 
1539 7163 3207 5630 6329 5944 4842 2549 2360 
2245 4658 8961 495 4697 1784 3711 452 5436 
8956 3505 2908 4724 8767 7567 1414 4925 8148 
5860 2851 7582 4820 7245 149 3128 9503 2104 
1202 4155 3142 8124 3690 2883 9396 9351 6186 
4037 245 408 5820 7066 1533 1459 6550 3596 
1755 1652 5330 7674 7019 3663 8705 5511 2017 
3298 5676 1523 3498 804 1358 1305 1078 734 
3575 1453 2723 9418 1779 1173 2808 8911 8702 
4532 4233 2876 7400 8882 6180 2079 6532 7604 
5135 7509 1761 2736 4511 1989 9424 8210 514 
496 6294 6770 5207 3990 2667 763 4377 8658 
4541 5093 4776 4205 910 5959 7329 2800 4128 
4217 4773 6844 5657 7026 4555 1739 275 2906 
4663 4069 2238 6677 6084 3396 9349 5895 7992 
7768 9928 1337 581 4905 16 41 1577 998 
752 3603 2919 1182 6983 906 3261 1904 8455 
5082 5112 5220 4338 2697 8930 3438 4287 3815 
8826 6848 2379 9715 1237 9227 9230 4194 8276 
3616 402 9354 3315 7517 9341 2534 4821 6331 
5222 6942 8676 3308 6640 4188 2121 5005 8628 
9226 4201 6325 4886 1894 5515 4035 7100 9784 
2248 7165 5694 3143 8033 5531 6074 150 1722 
728 8191 1528 3187 7211 519 1213 5648 2290 
2648 6920 3969 1010 7916 54 4665 5714 5138 
4109 4811 8746 5518 4973 986 916 3724 1044 
1617 5991 1691 1849 7863 73 4106 7966 3231 
2173 2868 2428 7778 8546 5687 8569 8554 8381 
1970 2331 1201 6772 5101 4476 6996 8760 4630 
4918 1765 1402 7775 3622 4108 779 9413 7679 
2623 6089 9615 1065 2307 9268 295 5202 6487 
9009 3443 223 416 4881 585 7826 4597 6330 
524 450 5938 4982 5934 4460 2637 2260 6208 
5343 9519 3902 4379 4577 7000 2430 2085 4494 
575 5973 64 7313 1363 6404 1526 5490 5172 
1383 3327 6223 9030 5698 7296 3153 3871 9250 
86 242 8580 9117 5867 4479 7247 4638 3801 
2326 3216 5612 6354 7670 5175 97 280 3606 
974 6194 7565 6948 3242 13 2047 9300 6153 
2219 8654 7813 5514 114 4686 3756 4173 8113 
9429 2250 7198 4040 9860 6458 8753 4879 3328 
1312 5918 8645 6227 8300 2811 1462 8638 1336 
4318 3265 6375 5375 9669 479 2702 7981 7227 
270 4193 2162 5738 3683 8050 421 4801 2421 
4687 2967 5752 5340 4874 3144 9823 759 5902 
3245 8766 8563 1847 4605 803 3301 6015 5336 
2927 7610 6815 6113 8425 836 2568 1324 2632 
8641 5919 1576 3352 659 1548 7521 7065 6494 
4721 2007 7004 8356 7418 7640 3500 141 6851 
6733 4260 3860 6632 8487 42 1422 947 7368 
7200 6336 5677 5744 8479 4171 4501 773 1625 
3453 730 9434 6302 8971 7623 3225 777 2803 
1 8097 9961 3388 789 8859 459 5651 2630 
861 3244 6902 2302 5771 7666 540 4909 4831 
4184 8894 9048 6933 1081 737 5381 1511 7936 
4076 2804 943 7327 5233 8683 3470 6254 5170 
9507 8900 273 2533 7503 8618 3697 8502 7864 
7751 1752 59 1720 2471 5703 5972 8585 7658 
5150 4373 9374 5489 7630 9168 5178 7261 9513 
9423 7558 1401 2713 1940 6145 8533 7890 3005 
4688 4083 2615 1706 9361 7002 5349 9482 7402 
5153 401 1603 3423 7532 6243 8242 6178 593 
226 8238 2619 332 1481 1325 2012 6469 3401 
4063 7408 778 2292 5092 8994 5777 5746 8831 
4500 9081 2675 3323 2631 9190 5292 7067 7274 
1344 8098 4689 1407 3645 1993 8695 4121 7190 
7244 1248 1703 6978 5979 5003 1169 954 214 
7225 5079 1589 5166 3993 1639 9369 6464 8378 
8039 6073 7866 8540 4034 3408 1382 9333 6029 
6787 4089 5341 5342 4621 8345 3050 6188 6773 
1209 1649 8194 5446 6090 9496 9289 7624 4793 
3289 2635 3950 3889 5685 5033 7254 1309 4812 
5832 4021 769 4792 6952 6228 8793 9129 7381 
7806 302 419 1827 5269 4816 6531 449 9845 
8838 853 2524 1604 2698 9471 7073 1300 869 
3189 8175 9440 8349 553 6314 7987 9387 1236 
1958 5542 3823 933 5494 3299 2861 6232 6311 
1980 7258 1838 6138 1874 2177 8173 7731 5974 
4635 4619 7056 2755 3623 2933 8038 7931 6855 
7039 2344 102 4227 1103 4660 5562 9292 9330 
6630 52 7122 990 675 7696 5997 8978 9323 
1214 6041 977 2149 7705 697 3399 1130 3147 
4865 9315 4629 8790 4706 8323 6115 3821 3063 
9224 5026 8516 8520 2170 3660 6245 3300 6276 
8200 1314 268 3243 5989 2125 1590 1055 4684 
5568 6262 8293 8492 1079 1440 1390 772 8440 
4799 6927 1175 6860 4803 7739 3152 5739 7096 
9467 3729 533 7878 5571 445 2209 1903 3582 
7020 7861 3205 4833 2060 1043 6555 6726 117 
1137 1508 4462 1190 1120 7662 905 9014 1953 
4174 8835 4804 8816 5879 7321 7618 949 1642 
3868 8613 8427 5513 1640 3725 5001 6489 9017 
2590 7513 4149 5803 596 6277 7031 6176 2921 
3344 6673 5816 9240 6303 4847 5757 3822 3410 
3024 162 8721 3170 7105 6540 3232 1183 3786 
87 1466 3981 1064 4642 3345 7831 9404 4364 
2960 2458 3273 3472 6561 5508 4127 8485 2178 
291 4383 8575 4661 1813 9295 8290 6514 3284 
352 4857 6712 6582 5466 815 3772 4049 4389 
6679 9450 5546 4657 4281 2448 1881 2691 3099 
3598 1645 8025 1821 1189 348 5971 5750 8950 
2884 922 3461 2786 8157 7480 8182 5142 1707 
3790 1059 9201 6370 7678 7715 1532 8142 1551 
7497 6599 7510 7649 2353 534 2200 2565 7237 
2087 4025 9438 7528 4009 4525 2445 5930 4713 
8335 8406 6124 8332 2329 4405 1347 2955 5321 
327 5855 1117 4829 4332 1841 5686 9242 6038 
3347 235 3390 2402 5366 5482 5223 7135 215 
4410 3246 817 7248 3982 3955 4677 9139 2351 
7637 5453 5927 6323 9149 3516 1301 3060 6374 
264 3192 3018 6966 7557 5246 36 3929 174 
4304 309 3127 1938 4234 732 8449 8438 2139 
369 1071 811 7738 6144 5550 6567 3885 2794 
2342 7851 6628 6837 1968 765 3747 791 3957 
7953 8095 5876 5296 5778 9114 4092 8190 336 
2242 6154 6257 5264 9086 2111 7452 4872 1028 
928 1069 2937 2011 2903 894 5780 7825 8183 
7845 236 1546 2285 1561 26 6416 5407 8250 
1131 3042 2526 9214 7780 2113 3493 432 9501 
4395 2703 3839 2695 6534 1223 502 71 2081 
9278 5216 137 570 4515 239 1376 3976 1098 
1318 105 6405 5236 6871 6468 6641 1689 6592 
7693 4750 3252 7384 2748 2068 8529 594 5661 
4409 1736 1814 8464 592 411 2393 4749 6988 
8696 5057 3930 3677 4969 4584 1973 6229 2915 
741 5251 7596 6120 3514 8121 3047 4649 2605 
6687 7588 9449 6993 1647 5313 1767 1664 871 
283 7716 3442 3936 6355 8414 5871 4975 2576 
3965 1921 566 5977 5665 3226 4406 3549 9208 
1565 7749 2873 8920 6094 5984 6166 8561 6576 
2939 4256 7177 7441 6268 5458 5394 698 2901 
1738 2205 8340 8868 7599 2355 8313 3040 3452 
4826 652 6360 4151 729 3035 176 2097 1177 
7202 8754 3532 2239 2684 4636 835 5658 6785 
1624 3113 4368 7094 7647 7262 168 3759 1513 
2548 6379 8343 3017 5784 1831 4931 1217 3394 
1960 9032 1932 2187 252 4760 527 7695 7181 
7799 2641 2661 3010 775 1477 1848 7113 5575 
7526 1456 7087 3506 5570 8951 6691 5549 6107 
5602 2217 4579 8370 3478 1322 8601 8112 7552 
8409 467 3857 6888 7970 8231 4086 2503 6095 
7660 6820 8181 7879 468 2230 4745 4244 2275 
646 9126 8821 6627 7325 6605 4659 3027 1505 
6705 8619 5180 4282 2849 2232 5951 8394 1161 
4560 2280 1468 6782 8151 3795 4158 2687 4084 
9400 4445 1478 9485 9304 2543 1766 4852 605 
244 3303 5168 1753 2312 2562 751 6551 6357 
4375 3391 9293 6907 5891 4203 2754 82 3114 
8904 370 2389 1150 2065 3078 3429 5307 8382 
8216 5184 307 3389 4648 9504 7652 3568 6654 
3863 557 3587 5365 8241 7434 5840 4892 4446 
7889 1619 1879 2481 5563 6135 6338 8660 3402 
8849 3307 474 2443 7828 6356 5912 4835 4022 
455 691 9484 1553 7118 7973 8896 3075 1434 
2662 6560 7267 329 8028 1307 4718 4457 3172 
5706 9239 7277 655 3618 9112 3570 1374 2411 
5480 466 6012 7285 2601 6526 982 2971 3792 
7204 4897 5280 3471 2902 9022 7927 9359 213 
1145 3649 3475 106 7960 667 3816 4292 4907 
4506 1415 3726 50 4819 1019 6419 2169 6806 
3670 3293 1275 6812 5501 1795 8152 5904 3531 
1233 8134 2388 7230 5380 6547 9072 8230 8057 
3178 5 885 5214 7941 6486 7944 2279 1156 
522 7980 8431 6732 6791 8114 5158 6798 9841 
1460 5396 7207 8317 6190 3706 9317 3560 5795 
5845 7574 7479 1674 4235 4806 7326 6441 456 
4309 4490 2006 4798 9176 5671 7907 2946 4140 
2974 23 1710 2380 3915 5402 5160 8274 3322 
3239 4072 2203 6471 8167 5775 1677 322 4606 
8605 7560 3102 3155 4099 4004 1607 9062 1230 
7068 5426 9318 8581 1680 1613 2666 1981 9455 
8338 1760 9769 3538 4851 4218 7790 7107 4574 
4873 6822 2751 6032 9363 3380 3269 7357 670 
4414 6539 6173 6586 3708 3079 2413 3633 650 
3800 5849 4133 3206 3855 2089 4150 2696 6868 
1323 7157 1586 5435 4680 4682 6431 7812 8082 
7547 8027 8684 4947 1964 2888 4911 5424 9403 
8234 5536 7589 1520 8512 8368 8138 1377 4716 
9283 8719 6745 7540 6326 5504 839 3194 4423 
7710 8927 55 2922 5830 9469 6503 7481 2074 
1340 5389 573 2053 2479 2887 2349 349 8169 
3369 9185 937 8617 3742 6358 2018 4056 2699 
5470 7544 7319 5865 2123 4656 4596 4030 6995 
489 4996 624 3904 3365 3658 6934 7112 7722 
5228 3847 7605 2592 4995 6170 9204 1330 4499 
2096 8229 1394 8224 4112 8680 4008 1557 9 
1569 8204 5880 7922 5107 4618 431 8981 8552 
4817 8123 7832 8514 7491 9187 1392 1228 5841 
1206 6300 6216 5352 7830 6658 130 3870 5970 
8863 8239 8677 2255 2140 5286 8862 8905 4722 
2100 930 3437 6203 5822 6260 9042 4431 1623 
610 4764 5968 6889 1559 7264 6343 8806 1929 
220 7601 7394 8336 6792 3456 4673 32 2124 
4696 5543 8598 8936 7886 3103 2221 157 3878 
6233 5627 4701 8538 3002 1398 2978 2835 6317 
9083 1110 63 1074 1101 5672 5693 8395 6455 
7014 2593 5799 7475 8186 5929 7053 5308 7287 
2617 1070 7675 9125 6591 2729 1774 2450 5297 
5815 6309 1244 3656 161 2218 2537 7404 8499 
6244 3641 5809 4455 6775 5290 5798 4126 3702 
9131 8310 6970 6250 9071 6258 2995 1579 1272 
5866 7273 7698 7222 9203 265 4243 2929 1277 
4972 9382 7488 6100 1552 654 8897 5920 6033 
9254 8367 9745 2138 8795 2961 3122 1890 3853 
284 7796 1386 7300 1614 460 3984 5454 7654 
576 5100 4669 745 4571 2367 8916 6197 5115 
6900 7818 9650 2322 973 8245 7436 1321 1207 
257 5416 7850 6945 6622 9365 3859 306 6391 
2814 7782 88 3013 4146 1243 1122 5479 4341 
4537 1212 2785 2763 7385 7752 5369 5691 542 
3393 7583 8568 5442 608 2674 4 2864 1162 
5966 6056 1516 359 6447 7807 7456 5917 9448 
8319 1651 3271 2225 1015 9177 8060 5925 9352 
8318 1267 1294 1490 6634 8029 4962 5354 8108 
9090 1997 1339 1016 5559 5539 8899 7322 9684 
2359 4988 7337 8966 9336 509 3433 3151 7515 
7091 6890 3130 1990 1869 3905 7431 9375 5804 
5224 3501 3032 1195 7856 9491 7650 5825 6887 
1876 1602 3132 6485 8255 642 7289 8880 3767 
7620 4664 1855 9425 4832 1971 1983 6553 606 
821 5473 1087 476 3536 5503 9483 6544 8928 
5117 2414 2734 3294 1616 6342 5722 6421 4226 
3973 1944 3163 2640 8989 5720 8446 6692 3530 
7634 9011 8646 8279 2505 3653 5136 8534 6481 
1421 4458 1370 5075 7507 7398 9492 7859 1568 
3051 1139 4991 7210 8819 7015 1006 4164 5506 
6835 5633 7375 6368 9046 3840 1426 4524 9319 
8405 5047 8437 2504 9308 1192 1472 9006 8040 
5235 1600 3069 4497 8813 5084 3983 665 1809 
5147 609 6647 8903 2399 3070 2152 1333 7553 
5875 9431 3689 394 3179 2257 7718 9392 160 
4747 1776 4891 4220 9325 5456 6892 9872 461 
8939 4096 5995 4667 8509 2659 1419 2556 8521 
269 8850 4932 1106 3592 5443 5163 5411 2626 
184 3133 6963 2416 7994 6629 687 2600 4634 
6313 6698 9443 9119 4705 6498 279 2035 8100 
5684 5660 1675 1140 3055 717 3754 4343 5652 
7414 2989 1768 989 487 4225 7699 5908 7406 
9307 5655 7918 5355 2891 3525 2957 1988 9270 
4944 7688 3577 1096 2109 6702 7697 9037 4175 
5345 4369 2514 2077 7717 7786 9395 3371 3201 
955 490 2642 5586 3958 3659 139 7545 341 
798 8662 4355 8799 6594 2071 3116 483 991 
6332 2928 5064 8474 3097 6160 4270 3435 1759 
3600 7804 2333 1502 4224 4242 3761 5483 6059 
1922 3497 1933 5960 8308 8391 316 7206 6448 
8706 2451 681 9175 1360 3639 2452 4824 7304 
6349 8918 2801 8984 3895 4082 4348 827 8086 
6442 5556 3956 1734 3580 5768 1256 3817 8735 
7430 8609 2291 8604 934 3212 3948 6781 7482 
6438 5899 6881 5598 8145 8170 1945 6720 7572 
8642 8404 4990 2871 5095 3379 3952 123 1803 
8519 3807 8104 6714 8963 7001 4131 5907 7559 
3482 2618 3193 5359 7362 6226 2019 4137 929 
556 1554 5492 1328 5981 1251 4519 5821 4818 
334 4346 4561 3602 3877 9004 7719 2728 5632 
143 3638 5992 9974 5701 6209 2610 3748 3837 
1999 5962 1915 5708 6499 5050 3714 164 8845 
7209 7140 6813 7923 5448 3499 701 4953 9003 
7343 3361 7192 3426 7619 5089 2145 7 5994 
8973 3576 1912 2842 5041 8736 6755 2826 7668 
5553 5478 5231 7453 9331 8878 8674 4454 9334 
4711 9018 645 354 9735 6097 2707 2740 5978 
2106 2204 4002 4510 447 5154 9499 4870 5961 
2730 5622 7537 3806 1661 3106 2558 4349 4823 
4391 4787 8008 292 2582 3494 4486 371 3313 
5498 3891 1555 6625 9435 9320 4119 8801 2867 
3020 2845 4340 3667 2656 4517 3552 451 2604 
6817 8360 4508 2186 1341 7556 4746 4062 859 
6528 4214 849 3462 2083 2310 7332 9210 987 
3918 437 7571 6400 7045 995 4229 4337 4262 
970 7082 4616 9962 2574 321 3479 3235 9414 
1406 7805 5621 7035 3944 380 4825 1180 5195 
7387 6425 2709 1994 101 2473 3906 6518 9223 
4871 1335 1537 4449 8587 256 3404 2948 3738 
4880 2009 1231 2507 6365 6685 6894 2318 387 
5725 1326 9663 3932 2163 2444 3370 5164 3054 
8077 4307 761 1113 7071 1515 6462 8162 2945 
2182 3654 388 7609 8844 7467 4157 3647 8901 
2447 7072 8284 8188 6670 1601 1985 3865 266 
484 7990 5497 14 4558 4273 7905 6103 2832 
126 15 3705 3420 5218 9194 4979 4169 2750 
4844 2309 4709 3686 726 7050 2371 381 2531 
1635 5745 7092 6757 1627 7197 5192 714 1825 
722 5931 2889 4778 3692 1571 6039 2134 1029 
577 3959 2998 952 6096 1083 2847 2819 2958 
3146 136 8661 3009 4863 9680 22 4087 4725 
2130 2733 1892 1014 5073 9196 8495 4927 2434 
5156 5334 482 3787 60 2969 3632 414 9510 
2802 7255 8357 3436 8164 816 2476 3003 438 
6778 7938 5555 8908 6141 2686 4482 3481 4964 
3309 5654 4057 2222 3629 1687 9397 6362 1361 
8297 6497 781 404 3539 4016 4643 6836 748 
3218 5707 333 1946 8468 5583 2167 2216 2099 
4213 4045 1787 5856 4081 4691 21 4416 4987 
3094 19 1030 3199 1497 2220 2658 491 6167 
7214 554 2193 351 3188 8757 4878 8248 8246 
3533 4376 1702 6274 913 4859 3421 2188 3684 
1967 4632 9801 3625 1678 2996 1959 3825 1588 
4590 4744 8298 5148 2550 4855 1257 6286 3411 
3862 1273 3318 4315 9034 3698 8825 2144 4443 
4540 6009 1558 9276 499 4152 4456 9162 5889 
1012 6206 6595 3219 6359 4284 4554 1369 6273 
5794 870 3092 4007 2281 3173 9135 2761 6747 
3765 8866 8149 8329 5766 9533 211 3508 1580 
2403 5528 6011 9001 850 9047 3007 1948 1049 
2164 3997 3728 3071 7765 6928 4530 8258 3802 
3838 180 3680 3134 2812 7921 5882 2426 2720 
3693 3543 2735 3557 5370 1727 2366 2509 5083 
2477 591 3111 1107 238 5877 1076 1102 1430 
1658 1306 771 3919 4903 800 2489 8883 424 
4919 4251 2762 2048 3535 731 290 7997 2136 
3609 4578 2266 1399 2546 85 2078 8334 3573 
423 4113 2799 8910 2 5541 4712 1134 9358 
8 9624 9115 4436 4655 8960 2051 3126 3669 
4167 684 6047 3107 5191 601 1671 1100 3694 
4326 6255 8105 9833 3933 1996 1082 4553 6838 
7704 685 7158 5911 3177 6575 2044 671 2938 
1512 8869 4600 6161 1926 1935 4421 6833 2002 
6414 2853 4856 6240 8429 2538 9225 7676 1221 
3766 4228 1697 3503 4091 5124 2911 2133 2677 
9594 1259 6072 1474 330 68 6876 477 4400 
1593 6759 5956 7750 1269 1562 623 1519 5139 
2614 2899 3760 1793 2088 1359 6253 1427 3599 
886 688 2700 5419 6315 2931 3914 1982 382 
1112 363 200 1966 4740 3074 511 1009 2335 
3286 2270 1315 301 4645 2530 34 997 3613 
924 508 2789 4853 3015 2940 3098 3517 2311 
2055 2289 9704 3258 1038 1204 441 3620 1063 
248 1299 1976 4774 1840 1067 2869 3469 1147 
7365 3553 4564 4271 7759 2575 9215 8281 4602 
2678 4015 4912 1164 6783 9589 8564 4221 3655 
300 3894 2517 710 8975 2334 4748 4070 2917 
1393 971 7076 2827 1061 344 3750 4742 100 
216 3292 4219 1844 3320 293 4887 5662 360 
2075 3422 1215 8556 311 9141 8895 6398 1777 
9777 1531 4029 4286 7252 9218 2488 4604 9949 
108 79 4573 4836 1708 4503 1974 1413 1969 
5846 4647 2689 2206 1949 2923 3774 1690 8586 
1479 4845 4588 4317 250 3043 9023 4433 7465 
8178 1255 3288 5245 1404 241 946 1943 2655 
8725 4396 2668 3563 4011 1732 877 5011 2797 
9466 8528 3249 1509 3329 2003 8412 8967 331 
1395 2616 1852 832 2987 9000 4276 9432 1252 
1104 3224 2372 7714 7353 5421 625 1796 2340 
2023 3214 4250 3978 1091 8932 5468 2108 8686 
2980 1253 704 3912 6418 1388 4514 9924 9865 
5133 3554 597 961 5608 690 1716 635 2436 
7182 1003 4786 297 7756 846 2959 4565 3441 
3908 2467 9794 6225 2966 4347 3283 4088 1420 
197 3093 345 4114 1857 8629 5146 25 4714 
4190 2790 3975 5560 3091 2756 2020 3509 4593 
4692 529 2328 1266 4143 3864 5433 5040 2397 
1366 485 9209 203 2112 9592 1373 3584 4207 
3671 4272 4051 7156 9821 3062 189 7814 8342 
2596 2015 2594 1681 1957 7324 4026 951 4625 
2798 4922 1595 261 595 463 4397 4199 2348 
2105 6991 3916 699 2202 3238 3354 1037 1816 
6079 2758 4739 2717 673 5861 2347 1918 361 
9711 3204 3522 2457 6422 4206 2358 2478 1152 
9179 4726 3110 1311 979 822 9894 2459 8578 
7411 1391 3842 8923 8223 4900 4111 639 2258 
4120 8041 9883 3941 2866 3681 915 4935 2387 
287 9811 2770 4717 2897 1484 2892 129 326 
8085 9936 4036 2793 2141 3741 4023 1573 7358 
9451 4481 1909 2719 2267 9692 2910 513 4068 
920 2419 1654 9444 178 9630 9275 2715 2577 
3590 9797 2377 867 4176 1035 3136 7008 8974 
4763 927 1187 889 9536 1034 661 9008 942 
5240 3704 662 823 9608 7508 9651 1442 561 
1865 5853 3248 4033 1954 2529 574 6078 237 
8921 2233 4569 6829 2724 9773 3612 1017 1878 
320 3011 8804 8513 2510 2251 2521 5986 4387 
4453 4475 8763 562 700 3439 2877 1820 2825 
1258 7328 3574 4073 1679 2622 1819 4236 1362 
3585 2485 721 234 3431 1181 74 9353 3084 
1762 3755 4926 9065 9985 5620 5322 2541 9371 
4419 193 2624 6980 1279 2527 2207 5767 8787 
1605 2066 5763 5589 945 6393 1154 2323 4014 
7615 4576 4781 4772 4769 1984 5152 4595 1457 
5485 442 4182 1748 3892 1866 8351 9629 3197 
1249 1153 11 8128 9886 1685 4208 1914 3511 
3727 377 8765 8322 2824 2288 4064 3723 2370 
1549 6069 2710 3171 24 3939 8469 9902 828 
4628 7450 1287 9790 4422 8852 1797 1919 4052 
4783 206 2058 3550 820 2132 335 1597 9997 
3675 4399 2356 4965 8621 9622 2013 1709 6731 
4767 146 7554 7689 9313 904 9460 8871 1578 
6035 7236 7746 9864 9778 6239 668 9232 458 
5129 357 9959 4929 818 5617 8277 7199 3190 
3460 2171 9827 9600 9579 7184 6512 8759 2484 
4305 3444 2934 9110 6992 9522 9561 4795 1931 
8773 6280 5606 3489 3447 1179 77 3096 9321 
7758 430 9782 1365 9648 2747 712 4534 1615 
3954 4994 7098 6152 5800 4866 830 7709 5358 
5509 4231 4802 1293 1501 1292 9520 8798 7188 
2551 3274 6446 9661 6126 4129 4216 4700 3262 
5872 7669 3257 5770 5885 3810 1158 7661 5127 
7876 9916 7839 3417 6305 4283 5309 7743 5749 
7930 9170 9426 2156 8211 4147 9578 6430 9816 
1126 6288 4474 4138 1124 7216 9195 2828 439 
9789 5413 7146 62 9702 8260 6869 7885 5401 
1473 1095 6517 7417 6284 517 8353 6256 9002 