# vtk DataFile Version 4.2
Generated by LIGGGHTS
ASCII
DATASET POLYDATA
POINTS 10000 float
-0.00443949 0.0009029 -0.0408605 -0.00173313 0.000896572 -0.0410677 6.23224e-05 0.000912216 -0.041109 
0.00249966 0.000896804 -0.0410281 -0.00431654 0.00272525 -0.0408717 -5.77182e-06 0.00272935 -0.0411083 
-0.00614655 0.00301596 -0.0406413 -0.00179633 0.00286567 -0.0410644 0.00166758 0.00337799 -0.0410695 
-0.00583987 0.00532053 -0.0406804 -0.00415478 0.00467257 -0.0408994 -0.000897128 0.00448406 -0.0410919 
0.00193001 0.00515444 -0.0410585 -0.00248548 0.00532676 -0.0410259 0.000241483 0.00587668 -0.0411009 
-0.00682613 0.0075265 -0.040535 -0.00404975 0.00646703 -0.0409057 -0.00150387 0.00683212 -0.0410783 
0.00148586 0.0071736 -0.0410796 -0.00526981 0.00848906 -0.040762 -0.00346557 0.00944898 -0.0409596 
-0.00170291 0.00900065 -0.0410697 0.000227574 0.00920721 -0.0411054 -0.00549783 0.0102663 -0.0406044 
-0.000837534 0.0106497 -0.0410665 0.00167016 0.0103568 -0.041069 -0.00584627 0.0120292 -0.0406899 
-0.00317745 0.0119062 -0.0409772 -0.000109635 0.0122878 -0.0411016 0.00167961 0.012435 -0.0410734 
-0.0039083 0.013587 -0.0409184 -0.000549938 0.0140255 -0.0411017 0.00135386 0.01422 -0.0410858 
-0.00280164 0.0150913 -0.0410151 -0.00499073 0.0161998 -0.0407992 -0.00162784 0.0164469 -0.0410706 
0.00179695 0.016378 -0.041063 -0.00666309 0.0174572 -0.0405673 -0.00357355 0.0179449 -0.0409443 
-3.56825e-05 0.0174064 -0.0411015 -0.00503715 0.0189987 -0.0407892 -0.00216729 0.0191822 -0.0410418 
-0.000299107 0.0191886 -0.0411046 0.00152806 0.019202 -0.0410775 -0.012777 0.00103879 -0.0390643 
-0.0104434 0.000941789 -0.0397592 -0.00869577 0.000897717 -0.0401701 -0.0069323 0.000914682 -0.0405172 
0.00429514 0.000911779 -0.0408738 0.00733851 0.00090072 -0.0404432 -0.0115914 0.00234178 -0.0394312 
-0.00989191 0.00270668 -0.0398945 -0.00783288 0.00246373 -0.0403491 -0.00553837 0.00164586 -0.0396456 
-0.00264948 0.00184777 -0.0398588 0.0012581 0.00187213 -0.0401714 0.00296506 0.00242939 -0.0402181 
0.00463343 0.00269474 -0.0408385 0.0069141 0.00271721 -0.0405204 0.00861935 0.00224 -0.0401859 
-0.0125183 0.00385823 -0.0391467 -0.00509928 0.00398017 -0.0395483 -0.00290757 0.00376394 -0.0399783 
0.00334724 0.00401201 -0.0409702 -0.010912 0.00496554 -0.0396301 -0.00875609 0.00407479 -0.040162 
-0.00700502 0.00429956 -0.0397176 0.0055746 0.00425592 -0.0407194 0.00765577 0.0050306 -0.0403871 
-0.0124907 0.00565934 -0.0391488 -0.00941584 0.00602761 -0.040015 -0.00753416 0.00587685 -0.0404039 
0.0029194 0.0062953 -0.0400931 0.00437018 0.00558455 -0.040871 -0.0119695 0.00736528 -0.0393235 
-0.00526627 0.00702692 -0.0397162 0.00406003 0.00747486 -0.0409008 0.00667671 0.00656499 -0.0405615 
0.00844682 0.0066395 -0.0402278 -0.0103043 0.00785132 -0.0397887 -0.00855685 0.00785966 -0.040205 
-0.00290747 0.0077934 -0.0405062 -6.02383e-05 0.00762916 -0.0402956 0.00266722 0.00806106 -0.0399293 
0.00697998 0.00846223 -0.0405065 -0.0127492 0.00897854 -0.0390763 -0.0110724 0.00968845 -0.0395807 
-0.00862555 0.00940397 -0.0392973 -0.00725121 0.00939037 -0.0404573 0.00345583 0.00929556 -0.0409616 
0.00533835 0.009145 -0.0407554 -0.0126878 0.0107767 -0.0390915 -0.00944592 0.0108336 -0.0400074 
-0.00684488 0.0109198 -0.039606 -0.00395291 0.010738 -0.0398122 -0.00221523 0.0103178 -0.0399671 
0.000435261 0.0106129 -0.0397916 0.00451785 0.01074 -0.0408536 0.00673976 0.0102513 -0.0405538 
0.00866524 0.0107752 -0.0401755 -0.0111706 0.0116274 -0.0395524 -0.00799935 0.0120993 -0.0403234 
-0.00144836 0.0119419 -0.039953 0.00293274 0.0113921 -0.0403179 0.00645525 0.0121291 -0.040594 
-0.0113534 0.0134522 -0.0394996 -0.00975489 0.0126737 -0.0399274 -0.00401997 0.0125051 -0.0394876 
-0.0021611 0.0134842 -0.0405275 0.00471542 0.0125279 -0.04083 0.00818276 0.0125443 -0.040278 
-0.0090803 0.0143334 -0.0400937 -0.00685471 0.0137267 -0.0405267 -0.00525301 0.0145268 -0.0401967 
0.00316144 0.0142959 -0.0409809 0.00682427 0.0140151 -0.040534 0.00873303 0.0142591 -0.0401611 
-0.0124578 0.0150387 -0.0391727 -0.0107682 0.0153802 -0.0396691 -0.00861854 0.0159882 -0.0395673 
-0.00715972 0.015498 -0.0404786 -0.00137897 0.0150873 -0.0399196 0.000246037 0.0155718 -0.0406613 
0.00355855 0.0160496 -0.0409475 0.00559528 0.0154781 -0.0407214 0.00763075 0.0156634 -0.0403893 
-0.01187 0.016763 -0.0393524 -0.00332831 0.0164426 -0.0399596 0.00654333 0.0170781 -0.0405821 
-0.00977436 0.0174104 -0.03992 -0.00805473 0.0176862 -0.0394599 -0.00471738 0.0175268 -0.0396209 
-0.00209929 0.0177501 -0.0399304 0.00213702 0.0178402 -0.04008 0.00372386 0.0178688 -0.04093 
0.00830924 0.0173192 -0.0402597 -0.0125246 0.0191465 -0.0391493 -0.0107882 0.0191368 -0.0396649 
-0.00868596 0.0192051 -0.040177 -0.00688894 0.0192063 -0.0402568 -0.0033873 0.0192002 -0.0396686 
0.0054337 0.019129 -0.0407433 0.00856949 0.0191342 -0.0402001 -0.0148813 0.000896204 -0.0383193 
-0.0112265 0.000895706 -0.0381533 -0.00876893 0.00089587 -0.0383358 -0.00702022 0.000890998 -0.0387286 
-0.00397632 0.000893262 -0.0391237 -0.00218086 0.000899582 -0.0384038 -0.000787571 0.000899362 -0.0395369 
0.00242808 0.000894838 -0.0392296 0.00411125 0.00151143 -0.039185 0.00581717 0.00153766 -0.0397318 
0.00886917 0.000897794 -0.0390153 0.0105127 0.000922394 -0.0397351 0.0122409 0.00089833 -0.0392387 
-0.0139942 0.00254916 -0.0386521 -0.0099904 0.00219624 -0.038177 -0.0067673 0.00263171 -0.0384007 
-0.00399178 0.00268195 -0.0389992 -0.000853043 0.00270588 -0.0395331 0.000566727 0.0022121 -0.0385511 
0.0125044 0.00279776 -0.0391421 -0.0109175 0.00372439 -0.038335 -0.0084871 0.00298674 -0.0387621 
-0.00229101 0.00295489 -0.0384977 0.000687346 0.00366894 -0.0395932 0.00563538 0.00325282 -0.0392256 
0.00743398 0.00335666 -0.0389278 0.00894322 0.00402116 -0.0396395 0.0106215 0.00338891 -0.0397101 
-0.0152602 0.00406818 -0.0381688 -0.0136448 0.00483798 -0.0380502 -0.00939938 0.00484057 -0.0386724 
-0.0034751 0.00429376 -0.0383574 -0.00126045 0.004446 -0.0393331 0.00244418 0.00401221 -0.0394147 
0.00423796 0.00445468 -0.0394799 0.0120435 0.00452928 -0.0392963 -0.0155656 0.00587569 -0.0380373 
-0.0106572 0.0063934 -0.0385662 -0.00771483 0.00543056 -0.0384916 -0.005951 0.00569358 -0.0387311 
-0.00426935 0.00556124 -0.0393468 -0.00249839 0.00572661 -0.0390814 0.00051534 0.00544426 -0.0393788 
0.00214343 0.00560465 -0.038633 0.00399937 0.00621796 -0.0386615 0.00551359 0.00571779 -0.0394894 
0.00731657 0.00606184 -0.0389631 0.0104103 0.00609127 -0.0397697 -0.0139992 0.00649705 -0.0386497 
-0.00900529 0.00710263 -0.038645 -0.00708499 0.00707816 -0.038821 -0.00363254 0.00719623 -0.0389748 
-0.00151105 0.00720907 -0.039327 0.00132245 0.00705717 -0.0392976 0.0054578 0.00762186 -0.0397772 
-0.0147661 0.00823897 -0.0383565 -0.00644109 0.00874293 -0.0389898 -0.00238009 0.00876336 -0.0390882 
-5.82385e-05 0.00791261 -0.0385234 0.00697286 0.00781776 -0.0388304 0.00893478 0.00810384 -0.0393061 
0.010733 0.00785587 -0.0396746 0.0124544 0.00773431 -0.0391702 -0.0162122 0.00922573 -0.0377748 
-0.0141911 0.00992994 -0.0385755 -0.011696 0.00984105 -0.0379002 -0.0100489 0.00888406 -0.0383371 
-0.00414451 0.00885947 -0.0394083 -0.000707352 0.00921539 -0.0395734 0.00108669 0.00884591 -0.0395714 
0.00264439 0.00978619 -0.0394417 0.00420875 0.00885472 -0.0393943 0.0075435 0.00949123 -0.0391445 
0.00996016 0.00946283 -0.0398821 -0.015604 0.0108996 -0.0380304 -0.0101831 0.0106953 -0.038372 
-0.00775484 0.0104389 -0.0381208 -0.000976922 0.0107557 -0.0386908 0.00385677 0.0110618 -0.0388115 
0.00557911 0.0110242 -0.0394339 0.0107424 0.0110674 -0.0396743 0.0123451 0.0104087 -0.0392064 
-0.0139142 0.012026 -0.0386723 -0.00872717 0.0118395 -0.0387128 -0.00701413 0.0120668 -0.038233 
-0.00524263 0.0114054 -0.0387608 -0.00268027 0.0115035 -0.0387061 0.000795493 0.0123602 -0.0395192 
0.00197382 0.0112737 -0.0387097 0.00746319 0.0114665 -0.0390291 -0.0155641 0.0126948 -0.0380444 
-0.010373 0.0126098 -0.038239 -0.00789954 0.0134136 -0.0390956 -0.00585462 0.0130259 -0.0392053 
-0.00225084 0.0132429 -0.0386713 -0.000633711 0.0125022 -0.0384505 0.00338906 0.0130242 -0.0397211 
0.0048775 0.0125438 -0.0387942 0.00658302 0.0130354 -0.0390524 0.0102057 0.0130555 -0.0398168 
-0.0138184 0.0139689 -0.0387156 -0.00979202 0.0142993 -0.0384547 -0.00658822 0.0146464 -0.0390062 
-0.00463066 0.0139706 -0.0383073 -0.00332796 0.0144523 -0.0394346 0.000395262 0.0141262 -0.0395798 
0.00217634 0.0143286 -0.03948 0.00382143 0.0144918 -0.0387769 0.00516349 0.0139677 -0.0398507 
0.00744653 0.0146078 -0.0389523 0.0120508 0.0141244 -0.0392948 -0.0139647 0.0158722 -0.0386539 
-0.0081455 0.0149525 -0.0381808 -0.00445336 0.0156883 -0.0387786 0.000663153 0.015693 -0.03874 
0.00449635 0.0160307 -0.0394153 0.0063273 0.0159979 -0.0391656 0.0106792 0.015213 -0.0396965 
-0.00986848 0.0160874 -0.0382893 -0.00740863 0.0166266 -0.0381572 -0.00603354 0.0163173 -0.0393412 
-0.00214701 0.0165338 -0.0386075 -0.000642739 0.0166873 -0.0395715 0.00238494 0.0161131 -0.0393831 
0.0100023 0.01687 -0.0398635 -0.0151594 0.0176624 -0.0381428 -0.0133841 0.0175929 -0.038865 
-0.0106859 0.0176829 -0.0383675 -0.00628269 0.0180453 -0.0389176 0.000828277 0.0174756 -0.0389069 
0.0035043 0.0174629 -0.0389813 0.00516162 0.0176923 -0.0396228 0.0116409 0.0174554 -0.0394219 
-0.0160589 0.0191896 -0.0378357 -0.0142365 0.0191457 -0.0385615 -0.00940143 0.0192083 -0.0385343 
-0.00761261 0.019206 -0.0386125 -0.00114175 0.0192083 -0.0395232 0.000651066 0.0191826 -0.0395147 
0.00234898 0.0192035 -0.0389308 0.00395256 0.0192007 -0.039734 0.00542126 0.0192063 -0.0386989 
0.00686802 0.0188421 -0.0397023 0.0103202 0.0191989 -0.0397836 -0.0184263 0.00112327 -0.0367375 
-0.0168019 0.0011772 -0.0375106 -0.0133622 0.00141501 -0.0374073 -0.00990259 0.000897381 -0.0369382 
-0.00682783 0.000909444 -0.0369393 -0.00538047 0.000905565 -0.0380079 -0.00363357 0.000930991 -0.0373486 
-0.000490569 0.000893953 -0.0377734 0.00145742 0.000896685 -0.0377164 0.0032563 0.000897525 -0.0376362 
[...]
POINT_DATA 10000
FIELD FieldData 7
id 1 10000 int
4285 2518 917 5785 3237 9779 9206 6817 4154 
8352 5783 2817 19 6034 9983 7492 6003 8322 
9850 3779 1956 4576 7723 7097 9585 8678 7966 
4699 3834 6897 8156 8216 6110 4047 8696 6903 
9950 7449 3078 3455 4538 831 8006 1088 6559 
6558 7196 7764 9707 9995 3881 8977 7256 7371 
7226 7690 4769 8517 8185 7547 9898 8139 9593 
5743 6424 3204 8140 8160 3278 8919 3465 7842 
4278 7286 9691 2215 7523 5371 7008 3291 8091 
8337 9346 9378 6562 7703 9881 9744 9756 5004 
1861 7578 6230 7646 7305 9568 8324 7721 136 
5262 6065 3753 9343 9791 1696 8744 2034 5036 
1180 2965 8718 5504 6877 4420 1317 2386 7149 
8827 8902 8060 9082 6803 1853 7283 5544 6932 
7376 7231 185 878 7824 5358 5635 1118 7790 
1308 6417 9324 3793 4245 3731 611 1241 1116 
6328 6281 8588 7032 225 8427 4758 9767 7407 
9919 7197 4044 9618 7896 9730 3469 5781 5 
7427 6490 2612 666 1008 2426 9757 1850 2016 
9835 7947 1072 541 3459 3462 199 8627 6502 
9231 8081 1608 2045 9493 8285 9615 9345 7215 
9458 9100 5134 9729 2105 5982 8287 6585 8289 
9917 4860 7672 9763 9245 440 8799 4858 9820 
753 3771 9836 2843 1419 8524 758 5091 7629 
5888 5656 679 8571 2643 9652 1995 4624 1196 
6849 9465 712 2025 9328 6413 9459 7266 4830 
314 7972 7265 1987 9599 662 7360 2469 3186 
9480 1788 8910 598 9828 2153 8933 2622 5156 
3542 313 3247 2311 6299 5109 718 6764 7651 
6273 2067 6022 7416 8921 5738 9523 2286 1263 
639 5234 4371 4540 7984 9446 2711 61 545 
6912 8217 9131 4190 5769 2413 8580 8425 4511 
6465 755 6429 5498 9253 5937 5517 5778 5409 
9423 5520 7953 111 1382 8458 2466 3744 1573 
1758 5819 7419 8760 6626 3316 7422 5209 9934 
4340 4424 8501 3624 5524 544 2261 6980 6880 
6400 5437 987 6259 3415 5700 99 7259 2470 
568 8083 2910 9990 5826 8408 5831 9758 4703 
7038 9532 9576 2954 9864 3151 8498 4274 6873 
7643 69 3411 748 248 2801 1914 9642 3272 
3573 5364 7437 9208 960 9795 9960 9511 9238 
3949 5378 9856 1567 9127 7052 1151 2608 8856 
9612 6412 7151 4934 8093 7164 5069 9739 3797 
2363 8559 6213 5179 1541 9710 5674 3863 2525 
8254 9577 6004 8202 921 1949 4938 4681 5270 
5925 4038 9475 7763 6744 7634 9527 5457 6493 
2062 6811 3600 8026 9851 2196 4647 7233 594 
7134 7566 751 7241 6902 6699 5999 9847 4294 
6263 9552 5735 6539 9687 6694 403 5470 8157 
5051 1820 6138 4446 5806 260 4948 5417 6440 
296 1276 4442 5285 7158 671 9384 2681 2378 
2599 6058 8210 9675 2882 6610 7352 9692 6601 
3777 2477 3217 8579 8872 4747 6718 9361 1931 
5471 3769 2805 4129 5666 641 7281 4547 3952 
9666 7003 3990 6617 5199 9089 3553 4015 9562 
5933 5261 7694 5847 7505 8465 538 7012 3781 
1339 7002 1809 57 8228 9077 9886 7153 381 
2589 8620 193 9921 7254 9804 6093 3395 3038 
5967 7586 790 1442 8992 9162 8823 1969 7869 
4661 8701 7917 33 4187 2294 7894 2235 6181 
5587 8158 394 8147 6661 3320 9821 2663 6140 
5678 6057 6827 9329 3149 8747 546 563 672 
9931 3004 3014 6055 7296 1653 6363 8003 6024 
1762 9454 1239 1521 6517 7057 8165 8461 5090 
476 9294 9641 9951 6844 8233 5940 7500 3467 
6352 7738 2976 3292 9416 4559 6278 5840 9768 
8631 5450 6495 9234 2821 5619 6102 9498 499 
9363 9121 7189 7713 3713 9709 3561 6448 1311 
8861 782 3509 2252 9573 1334 1631 4010 3737 
2022 8436 3396 1287 9648 8046 8092 6198 7172 
2689 8452 1188 7911 6771 9645 3064 3594 2 
7751 5833 8420 7173 5010 4877 1158 893 490 
7944 3443 2703 4189 4174 6917 8053 9884 8131 
8396 5564 8958 1149 5797 1654 9085 9747 5976 
9055 393 6537 8184 8348 8009 9505 1712 281 
9494 8504 5143 9410 7892 7413 9388 7024 8270 
1341 8621 9539 3222 2485 6975 9199 6145 8777 
7915 6106 6010 6729 9878 4086 2527 9005 9846 
3103 2888 9522 2638 7868 2220 3037 9542 1427 
9557 8629 1890 999 675 430 1430 8506 5910 
7370 7447 2852 8260 7184 2594 5404 4251 6179 
591 3250 9586 3969 3605 4384 9862 9812 9129 
4113 1494 944 4000 147 1810 5397 2100 4537 
9602 9306 3670 7055 4992 4227 1388 9551 9855 
8186 1915 8590 774 5082 7584 5096 5774 2894 
9649 3732 1698 6492 3547 345 5763 3674 7088 
1435 3544 8873 6463 7483 7522 3096 8062 5760 
2327 9663 5494 4095 1421 382 1017 9405 383 
4556 2709 3651 8350 9824 6512 7475 2415 7768 
7511 7683 3664 2058 3393 5429 6306 6457 5186 
5918 5765 9002 7835 7851 9815 4097 4048 2825 
5251 2216 890 8687 9803 9156 3735 91 9548 
7015 4123 9913 7084 9559 3241 7614 7294 7456 
4675 5710 6326 4623 5974 2063 1728 3053 5435 
8195 7596 2892 2828 4034 9506 2569 4535 3480 
6107 6564 8941 691 5492 6939 4180 6532 211 
2514 4798 1219 7272 362 3766 9839 7946 4986 
7136 3687 7841 5641 8528 9829 8435 3775 328 
9793 7393 3343 8431 8643 2616 8022 1930 7198 
1030 8713 5077 892 8032 3506 5688 995 5608 
7039 6968 5570 9555 644 4582 9264 5591 9205 
7389 2137 6319 3840 1482 9275 6908 3996 970 
6031 7331 7383 3972 9888 6681 9259 4792 1615 
2562 6556 7477 9718 554 3894 9647 6554 5415 
9792 6332 9528 8262 6535 9732 4271 100 3020 
8753 1681 7125 1200 5716 4679 1875 1485 4497 
6561 2372 8209 8632 4714 8004 9827 3213 4444 
5828 5989 3820 8803 7641 8948 7445 3738 1415 
9074 3511 212 9477 2054 1919 777 2537 6799 
8824 9164 1655 6995 4772 919 434 1097 1798 
482 1174 8300 4657 9561 7431 4225 5298 689 
1101 4603 2120 698 2747 6739 414 9905 6421 
5140 7534 9733 5850 5003 9385 9720 2453 2790 
2672 8946 1526 5075 9574 6786 2312 9344 5258 
6282 6280 7834 9107 4231 2448 5338 8201 8283 
132 5181 7798 3447 1038 9749 5658 2864 1216 
4945 4138 6981 775 9504 4336 8380 2211 8736 
8784 2078 1242 735 3112 6224 1511 9837 6359 
129 7950 2328 8318 2511 2161 9219 2024 8222 
1542 2005 9461 4829 3371 1467 781 1709 7365 
9292 7396 5103 6432 9842 4024 1612 5729 832 
898 894 3464 2615 2591 9838 6996 1985 3728 
7278 9948 9954 4507 1082 2983 9029 668 9313 
9606 7303 3304 9722 4723 9833 7336 6439 9133 
9627 9482 7698 3199 2399 3957 1719 13 4333 
2136 1085 3680 4922 1776 1947 8017 7217 1206 
5770 352 9432 8650 9965 9912 9637 2690 5176 
8061 7025 3255 8808 2550 9351 7590 9708 9854 
5886 9445 9159 9367 5647 9060 3688 6992 1948 
8659 4429 7573 6382 2104 849 1610 9993 897 
6883 9735 4199 9295 9806 2299 7408 5856 8456 
1384 6550 8536 4764 9731 5383 7146 1685 3639 
9110 2849 1577 2529 1569 7537 7517 9788 8433 
9229 5220 8049 8430 6834 5325 3944 5330 7474 
9966 7761 8538 7155 5895 3303 9700 8266 8258 
911 6390 6236 1083 1355 9631 3090 4151 9032 
7040 2911 3051 4689 9550 2187 5348 8794 2620 
9808 1699 343 1447 6668 3144 4819 2808 6225 
6971 8964 8876 8189 6536 7361 5217 7924 9911 
6221 1354 8776 4249 6013 4645 5427 6116 746 
9314 6420 1181 1050 4528 2270 905 6997 5365 
7702 4076 2172 3930 1781 2859 6649 8812 3333 
5052 6039 4498 4338 7366 906 4292 8164 5532 
7439 8338 3679 7190 2046 7610 6394 1285 7313 
9952 8888 1370 3167 1488 5949 6365 7518 958 
6315 5034 3054 6662 5709 6768 8211 5579 9209 
8703 1580 8341 618 1936 5137 4633 6234 4403 
2241 8613 3047 4996 1946 9783 8029 6728 6986 
7373 2106 9546 4051 6474 4570 299 7250 7569 
7975 3966 2278 8729 5604 9772 3190 9485 1667 
6575 6265 6451 6334 3519 1898 9959 6146 7889 
3052 6320 901 6667 930 3088 3995 2050 8035 
9009 7180 6161 4780 8867 3665 9092 6345 6627 
7185 7291 9556 3896 2342 4821 2275 337 8857 
5965 8787 6378 3187 6070 3830 5299 7712 5413 
9347 3482 4197 2377 2788 8584 3686 8276 1852 
5255 7072 8393 9651 2704 8826 2192 9979 9678 
4135 2310 9879 4054 492 3978 2694 6129 8410 
2318 9412 5779 3176 9826 9907 9350 1454 8953 
2159 2489 1613 8291 9909 2670 3603 9426 8840 
2652 5030 4795 1727 5021 3076 9923 2577 9572 
7170 1246 4315 5080 3891 7128 3479 419 7969 
5527 1126 7895 2499 2049 3335 6796 5257 74 
1265 8077 4712 6223 623 7673 9810 4888 255 
4950 9373 6933 3125 1643 3083 2123 5287 2634 
4035 7374 5432 6147 2724 2810 7576 3200 9971 
738 8168 6985 2592 2081 3338 8615 7731 8783 
7779 9624 1539 6684 7034 8373 2427 3749 9877 
9681 4725 3719 5025 8236 9153 9141 2536 5210 
6652 2253 1437 2226 8661 2993 2778 5336 700 
9823 312 3361 8125 8014 4634 9538 4326 7195 
2855 9305 5008 6462 2963 6775 5902 4071 3568 
2685 5170 4636 4380 3832 9908 6232 7087 1358 
4813 1893 9134 9200 5042 9249 9660 368 9479 
2304 5389 5497 4806 725 5841 2753 6714 4003 
928 2841 7309 371 4349 6973 3399 8221 9874 
8738 2141 3528 8441 4474 7380 8896 8645 7115 
2066 9033 4450 7216 3913 7783 6100 4200 7018 
3071 9766 8891 4386 8149 2505 2396 6521 3865 
1361 3501 5405 7997 2728 7979 274 9583 6348 
740 63 7638 7513 2028 4257 1579 7865 5291 
6150 2315 7707 9786 1359 3201 2246 9248 1961 
9674 5274 3481 2520 9534 3812 4651 6287 4265 
2624 9736 9623 4145 3838 9543 9889 4191 1724 
2990 2677 6298 6719 3554 7838 1049 9285 226 
189 7621 6472 9872 2996 4304 5820 9266 4042 
5214 3773 501 9202 3240 9818 4241 2265 9848 
9765 9533 5938 1407 1104 5055 2785 3475 1605 
9012 7495 9272 6008 9770 8665 1331 8087 2012 
4519 342 2798 1363 316 8508 7318 3663 5177 
2422 1757 8811 6899 2964 3461 1766 1707 3530 
8566 2444 2059 2097 2017 9223 3564 8295 3780 
3723 4916 9776 6865 1628 2539 3980 7094 4982 
7468 2368 7485 6628 5565 7746 2194 7400 6427 
1207 1268 8822 6480 8622 9930 4252 9964 9673 
2957 2767 1391 351 820 1854 365 5112 4467 
5205 542 6017 8136 5065 2763 9680 846 7684 
9972 6698 6032 3609 6488 714 3162 34 9293 
244 6374 6756 1637 9716 9780 7910 2139 2476 
4655 830 9676 2070 1899 4588 7516 9989 2033 
4219 9831 6511 3139 9781 6693 7612 5651 1953 
5511 7113 1432 9063 2696 6139 6891 3675 7328 
4529 2775 8996 4059 8605 7317 5628 5911 5757 
2094 8405 2781 3861 7448 6630 191 4022 484 
4023 1338 1761 480 1535 6269 3336 6680 7346 
8737 9684 330 6857 5502 5412 3923 2064 8841 
1286 9582 5078 1840 850 4521 6433 128 4625 
8719 5093 3484 5256 3209 4594 9787 522 3551 
5326 2108 3557 5506 5439 4660 2605 5987 7306 
8889 172 9613 9374 711 5907 9212 7409 114 
4965 8974 4785 366 1408 1062 1027 5329 5936 
4253 4355 6746 2750 8786 9540 6248 635 5087 
7743 4181 3640 3804 4466 4691 7598 3188 7324 
7268 8853 7302 9590 6737 2987 4534 5948 4417 
6697 6765 9417 405 2236 9594 223 2349 8424 
8005 3191 1022 8400 8166 6271 9261 9260 6081 
2439 2856 2313 574 8657 73 947 710 176 
9570 9958 5626 4583 8018 5092 9434 5043 7968 
5315 9349 8707 3049 1299 9759 6256 9136 9945 
8101 6801 8434 426 1231 4348 317 6990 4851 
2783 5122 6547 7119 7455 5861 5037 4222 131 
3613 8880 24 3895 2074 1340 184 681 8050 
9137 3742 8180 5341 7951 3976 6155 3107 9427 
9869 783 9790 3000 1152 2958 8893 4913 4346 
6821 1812 4102 5815 4284 3389 1202 1230 1484 
6750 8636 4477 1755 695 1288 1483 9777 6841 
2722 3105 6597 8752 2984 5594 124 8343 1609 
1510 5136 7420 4687 8683 2125 3839 1620 2393 
7815 105 2509 5284 4111 3496 454 860 1999 
9413 5991 112 271 6735 5104 7194 9221 1581 
956 5290 429 2416 5509 8612 1939 7341 7922 
5541 6047 8599 1678 6113 76 1464 7293 4901 
9187 4933 5165 6983 2430 7163 6212 1506 2488 
4040 2851 7269 9832 6584 2840 7809 5066 6651 
4195 862 9785 336 9395 6690 6383 5645 3468 
5355 1059 7556 6089 6695 2909 525 5204 7263 
471 4308 3934 2148 1845 7640 2338 9411 5289 
8818 3062 9214 8416 4412 5208 3508 406 5560 
8700 7858 4951 9326 9857 9938 8922 9927 9638 
9148 178 5063 8904 9013 3722 1582 5022 3931 
863 3351 7081 9797 9541 7063 8507 942 8059 
3965 9992 3067 6807 4239 3400 9392 4459 7310 
2086 1551 1660 7421 2303 3652 2184 7469 5453 
261 7372 6327 1215 7733 2264 6659 9198 3933 
1332 8263 2762 2244 1630 9621 1976 7568 5521 
693 423 3888 7784 1505 6818 6793 6609 1863 
4935 5448 4632 8454 6850 6477 9834 5421 9549 
9246 1252 9460 683 3942 2335 4515 4766 4193 
4291 4406 5870 8577 9282 8110 1587 5588 9062 
1918 4604 5986 3935 4062 6136 408 167 1162 
2516 4968 564 1293 6657 2171 9277 9 1823 
2895 2392 397 1522 6026 8421 4451 4418 238 
9173 5683 1992 1369 979 704 2473 6848 1537 
275 5203 4855 6084 6846 2968 7701 1306 6518 
2675 6623 887 3529 8532 5909 5979 5046 1927 
3058 9892 1900 8909 7417 3452 5185 3786 359 
749 7967 8219 8493 9984 8864 9442 1178 1910 
2069 1095 4367 5222 8388 7085 9956 9976 8767 
847 3968 4376 9290 5275 2560 8403 205 9251 
7020 7878 8495 6443 997 7575 9120 6934 2966 
4167 4057 5889 8771 2583 3986 6954 5917 5197 
2483 8306 5660 5698 285 4146 795 7820 3979 
7484 3971 3610 7787 1353 1169 8938 8439 7482 
7799 2764 9406 179 2923 7550 5386 9188 2949 
3698 6200 7855 8114 6959 2822 1481 7337 5562 
3967 6497 4592 9185 9381 2708 6300 5318 376 
6189 6219 5972 412 5751 6747 685 9944 7093 
1279 2020 6748 6613 8854 8591 7540 5679 2459 
4306 7812 5539 5807 8411 9895 6459 7497 7588 
504 9703 7005 1255 3520 3662 7300 7109 9312 
2076 6788 8325 3758 6392 323 8726 6370 8002 
8198 7821 9517 7049 230 3031 4382 149 8450 
1089 1322 435 7615 926 3100 9897 9298 9500 
726 5705 7359 9273 9865 5723 7687 7594 9168 
2831 7999 586 8843 9525 485 9893 302 7777 
9035 7022 1225 9499 6121 658 1203 497 5882 
6208 45 5514 9495 3756 2268 891 548 4069 
7175 1156 1676 1360 4796 7471 7459 8918 6677 
2451 2834 6816 6207 6618 2571 8440 2914 2791 
7605 9175 2820 651 8900 9436 3597 6660 363 
8155 4185 6692 1509 3128 4305 6802 7732 7595 
9516 8457 3075 5839 4730 6323 4464 3521 8802 
3852 4732 5351 5462 3709 294 9113 4295 9982 
9969 1550 6966 1549 6881 4562 4314 3280 1292 
1154 8965 9943 4089 9771 2997 2434 3486 2009 
7351 2043 3862 2970 5944 3205 1135 200 1966 
940 9376 2507 8044 7171 3274 46 9597 2570 
1627 59 2617 8769 8460 9661 5024 8763 8734 
4088 6871 9904 5343 3117 9991 2302 9030 5768 
8654 6196 1418 9668 2768 387 2839 4408 3108 
6809 555 9081 1734 7035 8740 7580 4360 5501 
3497 9318 38 7487 3989 8176 7210 208 8817 
1895 9076 3630 7734 5281 7893 7494 5213 4635 
5896 3030 1782 3458 7043 6253 5573 5571 8573 
2772 747 836 1218 8303 1925 8673 2871 8280 
2710 6774 6128 8973 2809 1768 8159 7543 3619 
5921 2004 5551 2733 4744 7490 934 7307 5739 
1881 2166 8890 7884 7704 3984 1307 4579 5715 
2111 1090 7908 7314 8897 4428 6216 3841 7898 
8821 7509 9045 3080 5354 871 7334 5638 9503 
9752 8931 220 6257 2443 8345 5169 6987 649 
8333 6798 3195 8356 8667 7632 9745 4848 7948 
2552 9353 7496 7280 7650 7956 6840 9609 4752 
1818 1440 4177 3682 1346 636 1004 1277 5951 
8008 1443 8866 3695 3833 5672 3495 4490 3889 
8045 3540 5854 145 8448 4478 3947 1260 5147 
9547 360 752 6759 9588 474 4396 9138 3584 
931 5894 8733 2340 9554 9051 2296 2474 8581 
2134 2832 3060 8096 6074 1648 7587 4016 4122 
889 9389 3798 2540 5803 6149 1352 5350 9809 
3421 2812 165 6964 4543 2880 7347 5301 1221 
9560 9299 7391 9748 7888 610 9705 3513 5403 
7747 4269 3962 4870 3301 630 2739 5123 3268 
4452 1107 6085 7981 8971 346 3607 8647 4574 
694 2848 8604 6067 6869 3904 7750 9142 8106 
3355 4794 6 6674 6927 4663 4881 4471 5576 
9304 9456 9807 6059 6622 450 2721 1124 5505 
5485 3483 3768 1420 8509 5015 2370 4946 5712 
3269 7212 7699 6092 6936 5340 6810 7514 1873 
1836 9357 4281 6592 7498 9873 9933 6589 2450 
3727 3401 6220 5029 3279 9929 8000 7551 18 
161 3938 7730 1075 9802 7936 5184 9421 195 
840 3628 983 1039 4607 3817 9501 1491 1586 
4186 4836 9174 259 7404 9669 3982 41 9255 
841 5423 446 8394 9671 8054 9882 8602 1878 
5189 1583 1168 4492 4781 6120 2497 5943 9019 
7735 1888 6357 4711 5725 3353 3086 1048 1842 
7271 8630 6713 7056 5953 7367 7555 2900 9450 
2544 8499 2927 8732 6892 348 5443 7622 2143 
1397 3531 5490 8830 475 6311 7709 280 6350 
4700 7132 234 1957 2138 266 3032 5183 4921 
8778 1720 6176 8914 4956 9001 4962 3081 3332 
2110 1864 6372 6261 9920 1601 3671 3901 2053 
451 8067 9424 7775 8169 5158 8512 9289 1649 
5977 6267 6541 4298 1769 5047 3312 5740 6346 
6275 1103 9332 9970 596 2316 5950 9403 8213 
8676 8486 6381 2567 8685 5396 9973 6723 7287 
4871 9390 2029 2322 7237 8962 4469 8148 9241 
868 9368 6302 3431 5243 5283 5440 4591 6342 
5897 3656 3276 2233 9719 2452 5598 8414 5286 
8255 5543 543 2019 8956 1372 779 85 7749 
5198 8347 8608 2532 6596 3882 7080 4937 895 
2021 8662 4169 9453 4513 9086 8706 1264 6297 
5557 6239 300 2186 3998 4731 853 2869 4330 
1046 9899 1037 4832 4898 1210 9798 8730 812 
4844 3231 7933 7048 9937 1658 9740 8617 5247 
4893 9603 597 5553 8905 3239 3326 389 2026 
154 5657 514 9269 2528 3880 4207 1700 7036 
1830 8248 4055 5151 2367 349 6283 5741 3922 
5268 1283 3441 7599 8513 6456 1364 6529 3155 
5852 7847 9419 5805 2729 3153 3365 8496 5730 
7659 8069 4019 4209 6450 4678 7863 7083 6209 
3325 3937 4393 7406 6574 5023 445 2065 5146 
5019 6168 8432 8583 4668 9279 6292 8247 1777 
8167 5992 6972 1428 3229 7832 8954 2190 8135 
7819 629 1501 9928 6700 9472 3716 5387 6911 
7160 4757 6122 1723 7343 5655 7668 2492 3306 
2036 9067 2521 1115 7009 7954 2203 6380 5500 
8107 5020 5395 3314 3093 6709 5319 1671 3160 
8797 8720 9233 8145 7653 4126 9237 6454 7848 
8068 303 8655 9510 390 8825 2730 9387 6227 
2206 6683 6088 9441 2433 9455 5874 4900 1618 
7227 7902 6837 557 6321 364 5793 5631 8294 
4704 1974 2055 8016 524 214 4436 8229 2701 
9724 7273 4157 5549 579 4600 4768 7769 6377 
7462 5624 5602 3548 8664 5157 9203 8142 4148 
7257 4321 4688 6175 3720 6103 4527 9697 7508 
6435 6706 5238 353 7344 7830 654 4885 6669 
3925 133 4856 8066 9778 9616 5614 8354 3676 
9464 153 3084 119 9981 1593 4763 962 6935 
4774 6205 8317 7388 1921 1496 8412 3874 6616 
2845 7515 9977 2666 5006 5669 7881 7874 8660 
3034 8245 4572 9031 5792 805 6431 5322 4270 
6836 948 6473 3835 5969 7934 798 1623 6375 
56 2285 7624 4155 6900 4162 7006 1347 4470 
5434 7873 1165 5211 5574 6470 8232 7330 4390 
2267 4932 604 6313 6526 416 5370 8321 2998 
7201 276 7532 5102 6633 1860 8788 4283 7111 
4400 7368 2314 6442 5083 7206 6703 4979 3432 
2001 6118 9853 2796 9746 876 8710 9863 5942 
7675 3315 3029 87 3813 7949 1109 6898 2121 
1851 7606 8357 4399 3256 1380 9987 9111 4786 
879 2385 1924 321 8227 9276 6455 7502 8235 
6705 4075 6792 148 3819 3761 7145 2205 5973 
3704 9116 8708 1516 4552 2887 9702 5215 5920 
6776 3523 6549 6091 7467 8792 7274 5398 1933 
3148 7148 8043 8679 64 9900 9287 8041 2610 
6173 6238 5117 1105 1837 3298 2723 5798 1499 
3743 9738 3717 7019 9400 4754 3581 4364 8346 
2406 7432 8072 2687 5479 6452 1413 4379 2308 
2549 4039 8240 6446 3218 3987 5328 1033 2271 
5363 5099 8150 8908 5399 4385 4902 142 3159 
9521 5577 5400 4402 852 2716 6859 9665 8179 
104 7657 4826 7593 2177 436 1257 2468 421 
8162 2158 4449 9193 6015 7677 8423 9558 5303 
6879 1227 3127 1450 907 8695 6330 5419 8926 
8330 2915 257 9379 7692 553 1452 2145 9942 
307 7465 8196 4303 7221 6688 398 4495 9123 
12 8844 8609 8833 2969 1138 8296 3574 5166 
6634 4972 2013 6889 9040 2247 8028 6242 6948 
7452 7715 808 3005 30 3559 2578 5589 7464 
7562 5931 1184 4421 283 920 3718 6612 4018 
7277 3997 1329 4221 4168 6749 5578 5667 6108 
8383 3877 6701 6570 6702 646 614 293 3414 
8772 5159 5860 2671 5385 2850 201 972 6631 
7457 1554 9166 8326 6005 5324 7729 5489 8810 
6337 1470 4091 7552 6906 9316 7323 9167 8299 
6736 2333 2715 5384 785 5235 9488 814 9530 
2942 8034 4616 1646 6262 5064 6956 9140 6371 
192 1565 573 5446 2928 6166 8194 4612 4258 
1691 9689 6288 3235 7064 9104 9053 9713 8249 
6925 7053 7630 7525 6506 6533 6033 4011 1979 
7626 4680 2503 2917 4718 6142 5248 277 6653 
9283 7478 5545 8515 6663 81 762 5171 4686 
2366 2199 3847 5124 190 3181 6376 7976 8442 
5503 7244 3138 49 3066 5488 9196 1385 3618 
8785 2636 6489 6172 8672 9050 7571 6870 1054 
377 7961 582 6458 329 26 3730 1834 2048 
6285 6998 2650 2394 5613 5345 8758 7655 6411 
6678 243 367 3171 6340 3615 1220 6021 2494 
9473 2647 9334 3063 2824 7299 9728 3471 9750 
4842 9566 784 3566 9685 8842 526 5662 1690 
1155 1238 4447 1161 7255 5756 6644 4580 6111 
6187 1396 1020 8226 320 828 1774 7806 8884 
8363 8983 8589 5161 2324 2524 4864 4807 6504 
9256 664 9360 8064 1572 3815 1145 3510 4891 
7192 6769 6542 5606 6941 9144 5823 9073 6295 
5463 648 3887 6329 4027 1185 5995 3702 4967 
5367 6514 7639 9177 2293 5690 2502 5119 9830 
1507 2587 4859 8534 4415 1945 1737 1534 6953 
2705 5753 4439 8500 4211 733 7102 7235 4080 
6590 7059 5800 6229 4226 7335 2682 2769 6910 
4335 7253 7864 4533 3778 8886 4491 7776 6905 
8982 25 2707 7662 441 8170 9470 1471 615 
6162 6874 9852 6950 1365 7905 7591 2576 2320 
8978 7425 5242 7828 7879 7877 7688 4630 8329 
5963 8805 8781 3939 8885 3810 4770 2146 5095 
6410 8898 338 7845 6540 4959 7773 4837 9091 
8027 7322 1746 9580 5791 844 7121 1047 424 
6557 7362 904 6012 6716 3321 1877 4137 780 
6368 5196 5984 7138 843 6823 9048 2563 4694 
1843 6105 6856 5802 6787 1740 4585 3740 2088 