# vtk DataFile Version 4.2
Generated by LIGGGHTS
ASCII
DATASET POLYDATA
POINTS 21992 float
0.00423774 -0.091837 -0.0489813 -0.00973942 -0.0902259 -0.0482021 0.00350509 -0.0890909 -0.0488819 
-0.00666669 -0.0865021 -0.0486819 -0.00659664 -0.0848894 -0.0487113 -0.00375256 -0.0619847 -0.0490312 
0.00423263 -0.0624732 -0.0489636 0.00245019 -0.0558029 -0.049083 -0.006266 -0.0524515 -0.0487429 
0.00155268 -0.0519742 -0.0491316 0.00438796 -0.0476173 -0.0489572 -0.00121956 -0.0439634 -0.0482791 
0.0013288 -0.0273626 -0.0491445 -0.00448415 -0.0181958 -0.0489705 -0.0042643 -0.000381547 -0.0490057 
-0.00292684 0.00414582 -0.0490601 -0.00265057 0.0173373 -0.0490732 0.00251262 0.0234774 -0.0490751 
-0.0077973 0.0277457 -0.0485265 4.90378e-06 0.0281736 -0.0491818 0.0050451 0.0350039 -0.0489257 
-0.00960745 0.0470482 -0.0482338 -0.00662386 0.0577323 -0.0486938 -0.00255699 0.0603671 -0.0490753 
0.00149198 0.0628718 -0.0491338 0.00271751 0.0616894 -0.0490645 0.00189426 0.064926 -0.0491119 
-0.00398911 0.0811038 -0.0490183 0.00333205 0.0823198 -0.048992 -0.0148069 -0.0981816 -0.045799 
-0.0125718 -0.0989765 -0.0472404 -0.00824502 -0.0981878 -0.0474401 -0.00463012 -0.0981764 -0.0479433 
0.000476984 -0.0981805 -0.0481725 0.00375866 -0.0981817 -0.0465723 0.00988222 -0.098185 -0.0471523 
-0.0110471 -0.0959588 -0.0468492 -0.00756633 -0.0952033 -0.0454853 -0.00207715 -0.0955291 -0.0480797 
0.00257633 -0.0950794 -0.0480575 0.00660321 -0.095999 -0.0476836 0.0112307 -0.0960312 -0.0478534 
-0.0147906 -0.0926407 -0.045814 -0.00955315 -0.092661 -0.0471984 -0.00526848 -0.0937145 -0.0478648 
-0.00206879 -0.0918832 -0.0477575 0.00178333 -0.0915102 -0.0480993 0.00581091 -0.0924064 -0.0469699 
0.00939688 -0.0929207 -0.0472427 -0.0161459 -0.0892382 -0.0453357 -0.0121086 -0.0900816 -0.0465836 
-0.00892831 -0.0903577 -0.0461242 -0.0059892 -0.0906973 -0.0459783 -0.000434572 -0.0886262 -0.0481438 
0.00352228 -0.0891066 -0.0459164 0.00844152 -0.0905108 -0.0468935 0.0130063 -0.0909243 -0.0463468 
-0.0134809 -0.0866814 -0.0462551 -0.00824584 -0.0881979 -0.0474356 -0.00502528 -0.0883047 -0.0455731 
-0.00406878 -0.0883661 -0.0480016 0.000275602 -0.0868598 -0.0463365 0.0066656 -0.0887186 -0.0476762 
0.00822432 -0.0866141 -0.0468935 0.00859159 -0.0870975 -0.048398 0.0102539 -0.0886276 -0.0470475 
-0.00880509 -0.0846048 -0.0473603 -0.00423493 -0.084754 -0.047617 -0.000648061 -0.0849624 -0.0481342 
0.00156498 -0.084052 -0.0468227 0.00280679 -0.086067 -0.048045 0.00623036 -0.0848984 -0.0477231 
0.00869002 -0.0855017 -0.0483813 0.010583 -0.0857912 -0.047786 -0.0147261 -0.0823436 -0.0458314 
-0.0103147 -0.0811502 -0.0470224 -0.00674469 -0.0814845 -0.0476456 -0.0023099 -0.0817141 -0.0480778 
0.00159429 -0.0817592 -0.0481118 0.00613698 -0.0812243 -0.0477448 0.00944009 -0.0832714 -0.0472311 
-0.00465355 -0.0785201 -0.0479411 -0.00042363 -0.0786129 -0.048146 0.0106288 -0.0798443 -0.04696 
0.0151938 -0.0814581 -0.0466432 -0.00832167 -0.0781374 -0.0474279 0.0039895 -0.0779151 -0.0479749 
0.0056294 -0.0767974 -0.0462619 0.00805033 -0.0771566 -0.0474579 -0.0144046 -0.075623 -0.0459467 
-0.0108823 -0.0754579 -0.0468747 -0.00729314 -0.0746533 -0.0475747 -0.00247382 -0.0756091 -0.048062 
0.00132029 -0.0754262 -0.0481263 0.00455031 -0.0737621 -0.0479392 -0.0184148 -0.0710101 -0.0456234 
-0.0137157 -0.0719175 -0.0461914 -0.00981253 -0.0719897 -0.0471447 -0.00437079 -0.0724808 -0.0479793 
-0.000727058 -0.0724208 -0.0481359 0.00814648 -0.0734947 -0.0474366 0.0119285 -0.0728866 -0.0466078 
-0.0136203 -0.0682837 -0.0461548 -0.0122772 -0.0700465 -0.0475876 -0.00687767 -0.0698631 -0.0476361 
0.00250631 -0.0707552 -0.0480605 0.00608353 -0.070171 -0.0477561 -0.0158964 -0.0670501 -0.0465152 
-0.0147471 -0.065751 -0.0467322 -0.0101055 -0.0682905 -0.0470674 -0.00345835 -0.0675818 -0.0480197 
-0.00117376 -0.066855 -0.0458585 0.000407098 -0.0677878 -0.0481793 0.00398399 -0.067051 -0.0479815 
0.00809454 -0.0670354 -0.0474435 0.0120914 -0.0677705 -0.0465808 -0.0118262 -0.0650374 -0.0466481 
-0.00826929 -0.0651732 -0.0474285 -0.00483226 -0.0640888 -0.0479126 -0.00122955 -0.0645443 -0.048111 
0.00602955 -0.0640419 -0.0477714 -0.0141395 -0.0621712 -0.0460425 -0.00890636 -0.0615928 -0.0473472 
-0.00065247 -0.0626949 -0.0462932 -0.00155115 -0.0609249 -0.048102 0.00175787 -0.0624438 -0.0480996 
0.00889421 -0.061829 -0.0473127 0.0130122 -0.0624164 -0.046342 -0.015981 -0.0586067 -0.0453971 
-0.00664378 -0.0593466 -0.0457303 -0.0054005 -0.0603388 -0.0478443 0.00269812 -0.0581923 -0.0480479 
0.00554808 -0.0604365 -0.0478474 0.00900828 -0.0590315 -0.0483289 0.0114333 -0.05916 -0.0467487 
-0.0118311 -0.0579497 -0.0466534 -0.00821213 -0.0580214 -0.0474379 -0.00474574 -0.0568799 -0.0469347 
-0.000527924 -0.0578785 -0.0464125 0.00680339 -0.056814 -0.0476468 0.0110315 -0.0555267 -0.0468589 
-0.0146389 -0.055257 -0.0458605 -0.0111883 -0.0543738 -0.0468072 -0.00747993 -0.0544605 -0.0475467 
-0.0038651 -0.0535211 -0.0480087 0.000220234 -0.054786 -0.0481697 0.000429513 -0.0527654 -0.0462661 
0.00443735 -0.0537477 -0.0479515 -0.0153665 -0.0515855 -0.0456016 -0.0119716 -0.050754 -0.0466142 
-0.0049173 -0.0500401 -0.0479039 -0.000953152 -0.0513473 -0.0481308 0.00885473 -0.0525549 -0.0473452 
-0.0165462 -0.0490208 -0.0462796 -0.014191 -0.0479142 -0.0460198 -0.00851664 -0.0498871 -0.0474049 
-0.00110733 -0.0477131 -0.0481241 0.00229312 -0.0489939 -0.0480785 0.00584386 -0.0497353 -0.0477968 
0.0109453 -0.0495892 -0.0468741 -0.0108069 -0.0469239 -0.0469005 -0.00725758 -0.0458937 -0.0475738 
-0.00391581 -0.0471722 -0.0458962 0.00147981 -0.0451553 -0.0481204 0.00522761 -0.0453034 -0.0478924 
0.00856248 -0.0468851 -0.0473773 -0.0166035 -0.042622 -0.04518 -0.0135526 -0.044331 -0.0462308 
-0.0103407 -0.0427702 -0.0470212 -0.00387195 -0.0442104 -0.0480047 0.0133747 -0.0440904 -0.0462471 
-0.0148738 -0.0403462 -0.0468565 -0.00681905 -0.0421105 -0.0476384 -0.00177044 -0.0412432 -0.0480888 
0.0035446 -0.042083 -0.0480116 0.0051314 -0.0401964 -0.047083 0.00716341 -0.0419358 -0.047586 
0.0108683 -0.0414913 -0.0468986 -0.014865 -0.0374266 -0.045778 -0.0120381 -0.0395758 -0.0466163 
-0.00915941 -0.0385577 -0.0474179 -0.00617059 -0.03883 -0.0462139 -0.00318881 -0.0378931 -0.0480439 
0.00119196 -0.039134 -0.0481324 0.0101636 -0.0374164 -0.0470804 -0.0115827 -0.0359687 -0.0467033 
-0.00802665 -0.0359014 -0.0474666 -0.000262993 -0.0357389 -0.0481492 0.00335056 -0.0361355 -0.0480121 
0.00710695 -0.0355095 -0.0475885 -0.0129544 -0.0326166 -0.046383 -0.0046748 -0.0345743 -0.0479429 
0.00113394 -0.0323844 -0.0481406 0.00474241 -0.032772 -0.0479322 0.0112326 -0.0339505 -0.0468022 
-0.0116282 -0.0297826 -0.0477457 -0.00961323 -0.0313716 -0.0471911 -0.00596205 -0.0305052 -0.0477556 
-0.00247284 -0.0314953 -0.0480602 0.00823934 -0.0318952 -0.0474212 -0.0138388 -0.0290995 -0.0461469 
-0.00939065 -0.0277079 -0.0472373 -0.00349848 -0.0291468 -0.0474687 -0.000951258 -0.0281826 -0.0481211 
0.00293927 -0.0292301 -0.0480418 0.00866524 -0.0282822 -0.0473614 -0.0148038 -0.0267817 -0.0468865 
-0.0124215 -0.0257172 -0.0465104 -0.00758452 -0.0243882 -0.0475355 -0.00504689 -0.026969 -0.0478958 
-0.00225909 -0.0246366 -0.0480698 0.00137293 -0.0249359 -0.0481226 0.00480741 -0.026108 -0.0479255 
0.010779 -0.0252798 -0.0469251 -0.0179301 -0.0244299 -0.0457737 -0.0150852 -0.0233604 -0.0466794 
-0.0116704 -0.0228491 -0.047645 0.00149348 -0.0230212 -0.0462397 0.00419255 -0.0223616 -0.0479606 
0.00753682 -0.0237287 -0.0475139 -0.0136384 -0.0208676 -0.0462079 -0.00885847 -0.0209867 -0.0473488 
-0.00292635 -0.0210567 -0.0480645 0.000697009 -0.021361 -0.0481591 0.00620407 -0.0191391 -0.047756 
0.0115235 -0.0200004 -0.0467316 -0.0164379 -0.0183273 -0.0452305 -0.0102838 -0.0175461 -0.0470265 
-0.00714865 -0.0189907 -0.0465872 -0.002108 -0.0182129 -0.0459579 0.00236518 -0.018129 -0.0480639 
-0.013817 -0.0159572 -0.0461548 -0.00556396 -0.0156359 -0.0478139 -0.00182037 -0.015284 -0.0480949 
0.00172014 -0.0144616 -0.0481081 0.00829825 -0.0161883 -0.0474077 0.0118686 -0.0161824 -0.046661 
-0.014402 -0.0123406 -0.0459411 -0.0109093 -0.0117367 -0.0468775 -0.00397403 -0.0123567 -0.048002 
0.00549144 -0.0138842 -0.047844 0.010004 -0.0129874 -0.0471189 -0.0164642 -0.00927061 -0.0452288 
-0.00765125 -0.0102475 -0.0475303 -0.00019824 -0.0108772 -0.0481578 0.00125473 -0.00925965 -0.0466199 
0.0038058 -0.00924399 -0.0479828 0.00735527 -0.0105307 -0.0475685 -0.0130363 -0.00883389 -0.0463587 
-0.00982354 -0.00731444 -0.0471316 -0.00420973 -0.00869981 -0.0479887 0.000938059 -0.0070088 -0.0481546 
0.00880935 -0.00650308 -0.0473211 0.0116604 -0.00895852 -0.0467008 -0.0155002 -0.00578092 -0.0455586 
-0.0122155 -0.0046019 -0.0465791 -0.00651734 -0.00589692 -0.0476779 -0.002442 -0.00552282 -0.0480695 
0.0043054 -0.00563846 -0.0479476 0.0140477 -0.00404234 -0.0471126 -0.0161171 -0.0022062 -0.0453424 
-0.00895066 -0.00320152 -0.0473408 -0.00543541 -0.00241091 -0.0478335 -0.000457281 -0.00173428 -0.0481504 
0.00315603 -0.00218039 -0.0480215 0.00720433 -0.00323963 -0.0475863 0.0118411 -0.00258563 -0.0466419 
-0.012339 -0.000931925 -0.046524 -0.00913453 0.000603598 -0.0473116 0.00504935 0.00146989 -0.047916 
0.00908879 -0.000142047 -0.0472844 -0.0151074 0.00139599 -0.0457006 -0.0118524 0.00293199 -0.0466449 
-0.00563063 0.00149941 -0.0478022 -0.00166328 0.00194782 -0.0481028 0.00173899 0.00323207 -0.0481006 
0.00834152 0.0034201 -0.0473912 0.0117896 0.00222458 -0.0466565 -0.0072473 0.00475733 -0.0475777 
-0.00110623 0.00594299 -0.048119 0.00615484 0.00630569 -0.0477461 -0.0142619 0.00717731 -0.0459928 
-0.0106273 0.00634418 -0.0469418 -0.00741527 0.00718069 -0.0465673 -0.00518126 0.00773735 -0.0478681 
0.00265862 0.00725768 -0.048054 0.00929115 0.00809916 -0.0472607 0.0127102 0.00696939 -0.0464145 
-0.0152755 0.0106586 -0.0456376 -0.0118761 0.00984412 -0.0466392 -0.00834488 0.00947588 -0.0474219 
-0.00211205 0.0096774 -0.0480803 0.00138837 0.0106745 -0.0481142 0.00543903 0.0103797 -0.0478506 
0.0124201 0.0105953 -0.0464839 -0.014219 0.0126643 -0.0470855 -0.0117601 0.0134779 -0.0466691 
[...]
POINT_DATA 21992
FIELD FieldData 6
id 1 21992 int
14001 13769 15595 10623 18350 13657 21483 17842 18708 
11060 14261 20723 14080 10207 13561 10912 14681 18670 
11076 12865 17900 12144 19214 14098 9444 16073 15216 
13327 19595 158 11932 7693 5378 7392 2938 5900 
472 7252 3402 6805 5558 17223 1682 7050 1873 
7576 4605 2179 7322 7483 4573 20656 5953 6975 
3231 8222 6064 4447 930 14288 5320 16672 1317 
9623 9934 1257 4550 7261 3051 18176 5294 4697 
16452 9432 7204 7433 67 3169 6237 1432 2137 
663 5691 370 10337 6680 3206 11951 3205 6301 
1997 2114 7590 4491 1586 14367 2310 7464 2649 
6318 3052 6034 7764 19093 701 6544 1000 19642 
17075 498 1413 13338 7578 2394 820 7710 2883 
1970 5004 3034 178 4531 65 15773 4690 1943 
182 1698 5485 20672 4769 283 3343 10700 1186 
4762 4444 2254 3081 5323 2149 1292 4450 3312 
2288 1758 8823 2383 5841 4104 4747 7308 2452 
17867 6 203 7358 7654 4437 2349 2427 5097 
2032 4020 2765 6143 2736 6477 3097 924 6215 
21775 1444 816 7223 18030 4350 4934 2944 993 
13906 5126 4190 4041 7525 5428 777 6147 934 
108 2026 4513 1977 7206 6609 19517 4951 6679 
3290 553 1303 5365 14134 4442 2968 6592 12599 
3814 4492 6962 139 50 2712 4826 13052 14886 
9812 8519 4192 2180 1694 440 1729 1291 1435 
1076 1205 450 17158 909 3555 2542 1281 6434 
6640 522 6919 6105 6751 4850 6579 6627 6403 
3151 5545 18509 2134 3976 714 4282 2951 5992 
5660 2223 5775 2602 226 2430 302 17452 1 
5591 711 6582 7378 4053 4049 2217 5828 6796 
4581 1723 1913 1421 4988 6190 6132 1463 1203 
456 4719 3340 5960 10949 1486 1405 3328 6284 
7552 6694 7120 85 3211 3237 5085 17028 6522 
2834 2900 1697 4663 7412 5539 19732 6624 6033 
6328 3062 4138 2290 1417 4631 3804 3571 5118 
3553 2476 1910 18115 712 6548 5823 5367 7166 
7560 7585 17163 5731 2051 2202 5023 1848 5857 
6703 4149 18925 4162 1422 6427 950 249 3136 
6055 4294 4941 219 891 2381 6599 2199 6712 
2101 2120 762 6855 726 1690 16716 4339 2075 
5820 4120 4524 4624 3341 4786 2509 6500 8760 
630 253 3831 7152 4589 5000 5339 17568 3143 
18149 443 2442 900 5752 5931 4943 1366 5329 
9 4500 14994 4250 465 3094 4402 3558 990 
18970 3727 5445 16072 15777 3774 7351 6557 4874 
242 1591 588 5802 6363 7167 7735 7545 6257 
6482 5821 7468 5005 488 4009 5673 433 7964 
2226 16683 7386 5111 2221 1239 6819 5226 5062 
2807 3785 7564 7001 4772 7639 2751 5443 6283 
6519 6738 4425 935 4059 3489 6142 54 5025 
5406 2981 3581 1726 7702 620 1003 4342 5194 
7575 1903 4435 4948 152 7343 5222 5115 638 
5753 883 4459 2584 4050 4495 3348 3394 2709 
2330 6707 3925 3905 4993 4317 6574 374 4621 
7007 16911 2299 645 6378 4499 5236 3921 7673 
6150 5871 4723 2656 1633 2828 1567 4698 5139 
4994 7219 4638 7303 7466 3242 15240 4946 4782 
4482 5951 6567 6307 4012 2593 1336 3461 1086 
3544 5595 7705 7382 6541 5400 7762 1280 6958 
4590 4507 6290 16286 5788 531 581 4204 6863 
1458 4636 2544 7719 5477 3088 1854 6886 1199 
7292 14760 17473 7465 7655 1128 3330 1861 3765 
1888 7424 276 19949 3641 7346 49 1834 5519 
6317 2439 5624 4311 7074 2318 7237 3170 5242 
7026 6826 1829 13358 2996 9079 6093 8028 3578 
17280 6450 2802 20891 5623 2930 2472 751 265 
2610 4271 17155 3048 8126 5471 6131 7597 2305 
21060 6171 6111 689 6000 3245 6535 2850 4612 
2018 2999 3663 5218 1855 5706 418 5949 5576 
3670 5983 427 4872 1302 14195 6591 20862 2774 
1088 3281 7604 12014 6209 4659 9728 125 5419 
7417 4472 3455 7183 4102 5333 4392 19529 2 
5605 6841 3605 1900 1820 6704 3945 7581 4998 
17671 5144 7326 79 2210 8744 260 7738 4130 
7700 6600 657 5514 4133 6460 4279 1670 4477 
1750 4042 9182 7342 17308 6964 6913 2666 601 
2831 1327 2377 4327 4914 5997 4834 885 2446 
4153 7339 121 4594 3885 275 904 6192 6528 
3606 8552 7163 4519 1181 5751 4467 3864 2729 
6929 1356 169 3181 4355 850 3517 5973 5 
2048 2793 3948 3806 2910 36 3415 3198 14657 
4281 6726 6289 2994 3962 7401 88 1678 928 
3331 11470 5192 5311 5529 6277 6834 2848 3586 
623 3842 9363 3115 5566 5388 7132 1615 20018 
789 6331 797 4583 1324 7406 907 6345 6998 
6812 7761 6641 2547 5615 4166 442 18 3055 
5493 20247 6096 9160 4901 2820 4283 20 5302 
191 2236 4744 938 4107 7188 5306 56 11084 
7419 5602 4414 2603 1014 3153 1347 927 6282 
17692 2098 3795 19186 1059 2390 2721 1948 2089 
7670 2551 870 6404 7603 7352 1746 3387 2195 
473 1534 2579 3698 6402 4262 2096 6415 5637 
6358 2029 12277 6692 2619 159 2672 93 239 
687 6389 2577 8488 7032 19698 5230 2824 5408 
2733 5664 19065 5247 810 1502 1849 17712 4910 
20884 5161 233 3329 20654 18104 1314 21585 7319 
3110 7073 5594 19260 4060 4561 5399 7056 1477 
533 3121 3677 4072 2465 2527 3253 754 5460 
1025 7724 40 846 1622 4005 2646 4078 7070 
7458 6050 19926 4578 5571 7674 11104 6814 16921 
14280 7598 3810 6292 405 2234 2541 6263 7350 
5197 1414 11351 4245 1601 962 1823 6057 6217 
6218 3656 14466 3971 20648 668 17557 7477 17665 
6066 20984 4685 14691 204 7126 6113 6840 6235 
10752 7380 3350 1987 2838 5101 7248 4674 5866 
4360 1642 2856 5550 315 8 4564 892 2225 
9169 3572 17093 1399 11332 6116 1898 7506 15921 
15418 2406 75 1393 20143 2132 6884 7682 16448 
3256 1004 4480 6321 2916 5177 2047 1200 11113 
6740 4615 5676 5904 6801 6737 814 530 7394 
2167 16206 6713 17166 4386 6406 6330 5371 6233 
6973 5201 5348 4969 2428 7582 5861 21890 15373 
2884 3724 2718 920 7414 5389 5862 504 7364 
7443 4655 5120 4486 1862 5921 6569 4230 1907 
3113 500 7118 2553 4305 9888 4798 274 5937 
995 578 2833 5849 5808 1351 5319 5707 5166 
7022 4075 1730 399 10488 6198 595 4428 4123 
5856 6525 7526 4616 3984 2030 539 5764 4299 
1116 7044 2680 16886 1912 7217 7513 1721 4046 
18993 2841 6705 1305 971 7210 1929 1655 3302 
7713 2408 6468 7780 550 888 4862 3384 7139 
5442 3258 973 3289 13566 3366 3004 6225 1362 
6606 3721 7644 2002 2550 4031 5205 2578 7265 
5674 1041 2882 6969 7181 9309 3845 1010 6889 
1471 1271 661 5720 5495 2024 5402 2803 4316 
2784 15441 7046 5263 1858 7154 7179 7425 3577 
4630 5993 5291 6610 20591 6736 7874 1074 1482 
4438 18815 5978 15138 5461 7023 7186 5490 1760 
18468 6013 8451 14462 4959 1946 153 624 6662 
5383 4666 15438 7588 10445 4038 14608 12935 4802 
4029 6032 5801 7202 7959 4228 4654 6259 51 
14254 765 4048 6398 2163 9214 2779 3382 15635 
5936 8742 9627 9932 592 7857 2362 5420 1491 
4753 7355 534 952 18682 2273 3798 19804 4906 
7072 19551 1736 3856 2501 3705 3003 311 165 
300 14376 2337 15332 7165 4851 7990 11800 6769 
4287 5307 7242 6924 7104 5199 1816 4079 6335 
15902 15828 21462 6521 4968 3166 3649 8118 756 
3177 6901 16858 11850 18212 8980 2851 6857 542 
7457 9976 4889 9170 20420 7174 11641 2365 8548 
1717 3042 610 5431 7669 3126 16259 1525 2750 
12785 571 15754 1306 5498 18964 1991 715 5970 
1391 5800 21575 4182 2231 4000 3594 9051 560 
2239 6071 6900 7119 4380 6915 4722 5939 15964 
16112 9660 18380 1628 10291 5858 4377 4789 10128 
6732 10430 20765 3574 16454 2819 739 1396 9008 
21210 3565 4011 3808 1637 6629 8741 18939 19759 
13908 16585 21917 17263 367 10979 1919 3695 631 
4015 3983 11584 4622 2904 337 13112 21354 8319 
6847 2426 5908 2714 3642 416 18144 20304 1645 
102 2764 5497 6708 8338 1192 4855 5693 5080 
3791 14775 11780 3226 1988 4975 6515 4352 2693 
4412 829 15903 11246 808 4572 3365 6664 2907 
17233 4116 5914 3457 2242 2722 1932 2953 388 
4163 3345 5204 14877 2146 104 3603 1979 2280 
8167 3904 1197 4734 7699 227 14921 7042 1908 
420 6136 12881 5210 20192 14680 20183 3315 308 
3759 15479 1264 7782 5170 7103 16222 2933 5179 
18406 3846 1068 5994 2176 3510 12717 1488 2932 
3408 7652 21162 1540 14047 4055 5148 18220 7178 
5068 2639 2745 5432 6021 1373 7708 7572 3600 
7936 7447 20479 5298 8393 13104 963 5396 16905 
5134 3160 4265 98 7548 5458 5421 19265 17191 
4227 3968 5304 6916 7391 8466 122 4398 3652 
2062 3434 17005 77 15162 2676 3390 16857 2886 
10490 3672 4644 1600 2540 1454 6364 15394 14551 
4370 8144 3449 2961 6260 6424 14703 2532 4328 
1761 2327 1112 16612 17667 4401 454 2185 13939 
7273 9647 5697 8340 21772 5975 10484 220 3358 
2399 6911 1440 3693 2684 5021 3924 3465 1054 
3815 6613 4464 7694 6643 14293 474 4454 5404 
404 2940 3464 1817 3736 4200 6018 2471 6451 
1589 4688 8717 2982 1247 6337 267 5355 2756 
3485 5929 3483 6685 162 670 5241 5195 71 
2277 2455 2959 1322 19532 14802 13083 18770 3404 
5946 13454 8855 7531 5342 19179 4977 4556 1668 
858 1249 373 3096 6461 1459 7061 2281 7608 
10862 10520 8188 17562 2647 8079 1603 2581 1512 
11144 391 5661 8889 409 19373 11349 2920 4923 
6792 4493 3733 3830 124 4488 17406 2675 3719 
3543 8048 2435 6896 1012 10080 18946 15416 5600 
590 1886 7596 4599 1714 2694 13398 6325 4145 
2105 181 21335 1090 3021 14499 3257 4903 5772 
15525 6638 19077 20386 10174 13742 6177 3709 5947 
14916 5552 2626 110 6454 21146 20897 15916 4068 
1206 12835 6963 4882 2983 2245 11188 20034 4836 
14412 1236 20090 18960 21650 5169 5474 1353 17120 
5570 1129 13329 18209 1178 872 2418 6921 1611 
6258 4828 4755 6510 3580 5338 18239 5266 17073 
3894 8276 3781 6121 7687 7562 14534 6178 6815 
7503 2016 5377 2912 6193 1519 798 7340 4273 
976 6084 5984 5165 10953 9055 19881 779 256 
20216 7579 3610 10922 4363 9928 6087 20821 3855 
977 12110 3969 14664 5987 2653 2457 2129 887 
3782 10060 3030 1876 9227 7035 7327 4436 137 
1009 4101 6109 501 16402 6967 6396 6470 6690 
232 7635 3452 650 2369 5982 1409 7317 4251 
18720 10247 99 6211 5531 941 3327 10643 6761 
910 4002 3374 1287 6472 3742 855 163 10857 
4913 660 11525 293 334 17254 21052 7338 3682 
407 6700 1268 2366 8367 9566 20097 2852 811 
5738 5665 19 7387 695 11759 6938 2711 19370 
17719 19014 1793 1978 5352 5290 1407 4904 5397 
6684 14067 6646 12045 401 6893 6426 563 2761 
6621 1445 2724 770 3060 2193 5046 1419 6673 
14271 2448 3584 236 7374 1889 1990 482 4423 
2216 11822 4924 15605 7276 6315 5880 5475 3680 
6414 4139 1381 1891 5401 7624 13595 1478 20971 
1184 2800 8779 2462 5258 291 2757 7129 6306 
5283 4857 2943 5727 90 27 18337 6127 2772 
4535 6497 7773 2319 3974 1130 5059 17598 796 
4743 1558 3708 1142 4418 5714 2033 6091 2220 
2307 3158 3346 639 6575 10934 4275 5353 18226 
17825 6935 7028 7295 6130 11976 5220 2815 20080 
11650 636 3067 21895 19039 7507 310 2160 2976 
3190 4466 11927 2538 4371 2558 9261 11857 21352 
19807 1261 2598 4270 839 19296 2788 5629 4950 
15458 13002 968 12634 21592 1870 6672 2875 18674 
13727 4168 1796 1449 6245 2836 14871 21580 12269 
19099 7472 1155 4082 5303 17360 3950 6029 20552 
18552 9316 15675 1867 8201 20529 5076 1442 4935 
16735 7681 21075 4895 18051 15647 2511 5606 16764 
10237 20050 2823 10559 4637 3551 1109 483 4876 
4662 16743 8719 8368 18753 20458 5989 9435 14609 
13960 17697 3041 4097 5269 4456 5292 7459 5500 
20001 7234 20434 5318 15764 17699 6222 14687 16427 
8192 8194 21631 18692 3105 5579 7451 6760 1922 
2492 4113 10785 20494 13956 199 704 5608 2491 
19027 14239 5853 5232 9376 3059 2627 708 15179 
7304 19043 5628 6170 10823 3792 1211 13336 643 
16826 18177 12187 14588 19858 5040 6848 5612 1333 
4424 1148 5240 7437 20230 10501 696 11819 7123 
13689 3437 5429 1738 15217 1897 1329 8191 16657 
15858 377 3552 21522 15994 18080 10992 4487 7169 
3755 3665 4151 14411 16456 7870 19445 14659 13098 
8547 1213 10227 4034 4979 107 20267 21360 775 
6212 5878 20630 11122 12434 13196 15316 4089 3219 
4805 6015 9348 21183 9139 9295 1103 11448 8845 
437 20523 13365 2633 16704 5293 6563 1716 321 
13389 20775 2913 7860 9980 12578 11944 17463 2133 
20677 18264 1378 3981 14145 4503 7919 10292 16009 
4112 6731 17722 17337 7529 12545 4169 20226 20364 
12755 17173 18039 3587 12177 1744 2434 6630 7381 
19899 6001 4184 11495 12182 4211 10171 14953 5696 
19258 5276 19644 13435 18298 16979 18117 12256 795 
1244 7743 18274 14495 6757 6098 2458 10489 17435 
4261 15651 17930 4296 16042 942 5305 6100 6503 
3442 2270 14632 11897 15586 12707 15256 10319 10799 
20764 8824 19855 6442 9519 16451 6739 20898 15399 
13894 9003 4448 6909 2799 15034 4650 2397 6876 
3053 13842 18480 19235 14811 13185 18284 2022 9356 
8603 8493 15818 20159 2768 4804 19226 4886 15089 
2039 580 13568 13623 21642 16300 17978 13244 1757 
8569 13558 18677 16978 1312 7102 4780 6789 9683 
7684 21869 6123 1692 9688 5709 2373 3022 7395 
1307 5573 2865 5060 3773 8263 8498 17218 2122 
7085 6399 2190 740 10235 14840 20614 11393 16947 
11471 1665 13449 7235 4085 1971 4195 128 5991 
14478 4122 5844 10612 986 17629 11282 17570 12763 
2454 20551 13535 19400 2421 2086 17713 10726 3850 
9965 21024 13843 214 20709 12788 177 576 3236 
1182 3869 421 16476 3715 18634 5128 16049 9872 
228 126 8119 8927 6432 20690 13762 3283 1018 
2266 11069 1415 20502 12178 17438 15699 11930 12431 
18605 9635 15007 7115 5093 13019 5285 5393 1789 
21758 16991 19736 17081 19978 17278 18658 192 14709 
20207 3209 5234 15725 371 13945 5748 2872 480 
17702 3212 18178 16261 1713 18354 18545 9655 15876 
7177 13038 336 5066 7926 346 13235 3395 6164 
8521 9607 18699 3460 8537 8325 1283 5596 1146 
218 2605 3996 194 5001 5948 17369 640 13190 
13531 10549 5100 12038 2158 1680 7606 4915 2449 
4822 18893 13819 329 16039 2141 12439 4001 21583 
4966 6869 1423 1040 18213 14992 5520 8246 17679 
15955 20953 10550 20912 2484 5656 1079 1427 2235 
16108 6837 6044 5733 17018 2720 12085 15912 17085 
14813 3385 2892 1940 270 17304 7489 4458 921 
15742 972 4854 19433 1562 10218 5925 2173 2659 
21036 5203 10434 3972 12626 14781 21263 5981 11399 
19500 19251 343 5132 20952 2200 2853 2921 7540 
3163 4306 11953 8895 9784 10331 2993 20851 12655 
6688 743 985 20760 13276 1187 5670 4155 9956 
15454 1286 2275 6783 7749 398 349 11444 16030 
2530 9366 18203 1133 18799 21577 16982 21111 1343 
11781 15478 15294 20808 16610 7879 7993 832 7067 
5916 890 8759 17408 14100 3333 13653 18084 11640 
13686 6716 821 14956 3872 5717 5219 17822 12728 
5969 15052 16185 11018 5879 20144 3137 1060 1523 
4800 2469 6872 146 17193 10136 3300 2866 15144 
1285 621 5273 2575 20397 5374 161 16466 720 
19429 9498 21084 9208 16755 12084 12147 21038 8097 
11474 5569 10238 9913 7594 17800 16538 18311 14319 
17695 318 2776 3666 1595 4584 3893 16243 1096 
14839 16376 6463 17041 3771 1026 21128 6784 5212 
3620 4391 21280 13876 20412 2945 14885 16518 12975 
1513 4070 11292 19565 662 1295 1275 3144 7766 
6417 12848 15036 4929 13505 7511 12650 13962 5956 
7730 983 2115 12814 9026 15342 5688 21992 21742 
3757 893 20027 1797 2974 4167 1434 11937 6047 
5176 13221 18109 13720 4783 18141 19621 15914 1272 
13870 6166 6347 3743 1535 3722 11019 13656 15644 
14226 5394 3147 929 12646 4586 1975 3633 3377 
4799 5104 1942 3435 19185 14696 12395 5251 7245 
4608 10615 3608 7546 17566 12724 21415 17201 14925 
1521 8422 4469 13267 11208 5145 1843 7110 1994 
20769 2608 16939 11959 19955 17758 20217 16696 4118 
11962 9622 12837 6297 562 5465 5634 6278 3527 
19028 13779 4293 7284 16864 21560 4422 6655 6180 
6053 18581 15251 21045 16083 5636 21846 16520 6459 
9813 12946 9624 17984 7557 3075 20567 12676 6357 
21091 7517 6590 393 21570 2385 1906 4244 895 
1609 4954 19708 6750 6698 8885 9576 4971 21849 
8993 3379 1465 16687 4791 21711 11485 552 13758 
12241 11664 3197 8866 2367 4574 975 5831 21025 
11154 20777 16 6281 20315 8497 9632 4706 2470 
21850 876 7341 14350 13418 6124 6007 6506 17997 
694 656 7027 2403 17920 10541 11249 143 350 
7376 4721 5308 1693 5971 19971 4778 5704 17352 
18361 12576 8481 8382 15832 13059 4585 9270 12408 
5069 4562 5185 20301 13220 19189 20235 198 19615 
19162 7796 8164 11462 6025 17008 19543 15096 15871 
16673 3498 7356 1901 5065 5742 12602 12983 9124 
14266 5749 1739 16962 21658 1089 13078 3599 8689 
6776 3189 20789 1574 4707 1131 10907 5436 4660 
6768 4861 20867 8333 16193 12584 833 14562 6836 
4756 154 15125 131 4374 3741 16892 828 14968 
3783 7607 3109 5941 1215 3564 6620 6076 3822 
3707 7016 3360 13246 17066 6160 18353 11327 5182 
3523 4253 3120 6868 3919 6014 3956 591 5765 
2707 4815 949 5282 884 11705 69 5689 6279 
7239 2849 5381 4517 2249 6689 10003 3896 21442 
3766 6234 7244 2285 7253 3072 247 999 8816 
898 2400 5980 5710 11761 7534 1256 5865 5255 
7080 4833 17769 2901 2279 5250 8890 2631 2992 
5054 3847 19058 1159 6495 4214 11304 6425 11523 
19919 20903 17202 14797 12379 4700 4022 889 3148 
7583 5649 1058 18739 21205 9652 18134 18757 21149 
2681 14767 3065 5504 1462 14378 9087 6800 15369 
2911 8802 992 17694 4871 3751 17802 6465 9251 
5281 1551 7310 11315 8777 2510 5583 9927 14102 
21034 3453 5850 19528 16678 12053 16825 16628 13245 
7912 1100 5184 7224 4676 3172 2356 19792 20356 
4157 17409 20271 9302 15126 13869 8501 9603 12643 
13699 12145 431 2847 837 4668 549 5136 20059 
17301 17725 18926 20676 15139 819 6106 17213 16996 
19583 6305 3371 3221 3272 3612 19277 12474 2887 
6122 16504 18182 7753 11095 11882 6622 13383 16255 
11720 6067 2013 11682 5030 18273 10427 3354 7262 
17341 18952 15140 20598 21851 11890 8043 8426 12190 
20131 13436 18645 21844 2990 15502 3479 6135 2368 
6224 7482 7739 16532 3216 12091 15833 3007 13878 
7797 8962 10389 8722 5157 3477 9924 5350 5718 
1473 1545 724 4820 13087 15286 17204 19657 2172 
10663 13066 7190 20074 21237 8513 15543 20691 15335 
21905 5618 10011 11508 10883 12381 289 1087 5271 
3888 20206 3934 13594 16805 20116 9577 15248 11630 
11411 10044 21283 21141 14294 13716 10711 10697 2243 
15365 17178 14042 7541 2874 8989 4150 11114 10561 
14518 16908 12035 12403 183 12500 16343 2166 12600 
17359 10825 10288 11225 14115 1644 18981 21932 12352 
12328 15035 18266 2268 14544 13275 20174 1749 19202 
6882 1930 12446 12324 9830 14519 5441 15992 17737 
11667 15044 8084 12456 21412 15033 9426 21604 16446 
14847 12712 19347 8928 12149 3440 19809 6554 6572 
4845 1798 16221 134 9457 12533 21680 21390 19262 
20045 10182 13158 11657 20868 10256 5669 21923 8406 
9674 14242 11812 15776 16118 14572 8113 15422 5287 
62 1117 9548 3907 17501 15309 19859 5178 10486 
12885 1188 8296 17271 19346 14568 278 17795 7836 
20532 8818 14368 13231 5482 4554 12577 2935 21115 
7744 6925 18613 12974 15718 12096 9338 2209 17126 
13738 19341 17813 20052 18671 21499 12945 17109 18302 
19107 6677 4109 2778 6271 4233 12764 3117 16496 
9400 13278 16037 17924 10441 17969 1017 18348 7835 
10929 11907 1279 18928 20461 12171 15093 5121 5117 
3228 15368 2760 2161 8106 12193 8516 11858 2049 
9047 21178 10664 18425 16265 8293 4074 9035 13577 
16267 2885 2585 17573 6200 21363 18912 1518 10103 
21662 1687 15700 4852 13776 20384 19973 7661 9685 
15160 15312 9080 1871 19791 10087 565 7302 7090 
583 1250 15198 21139 3187 15343 17389 12506 15819 
7441 10426 17936 13818 20663 17265 14345 16631 5217 
5031 7307 13299 3439 6189 12436 13548 14302 10933 
20391 21766 9193 21500 8441 20573 20055 19790 11426 
14947 10040 19357 14922 13183 2147 1050 1741 9178 
13573 6244 1392 7264 20194 13247 13710 8320 19892 
1228 7214 10072 10275 1794 9803 2309 723 2487 
15639 5897 11293 9100 2328 10633 13113 14464 15611 
21588 11052 17908 20239 13935 20649 11845 5427 2770 
778 2569 3304 12636 9661 21290 15503 18905 9534 
17270 18173 10662 6942 7790 8876 10539 7989 20666 
20565 13802 15434 15464 17362 2072 2663 7268 7954 
3251 10301 15471 3338 9581 21192 10311 17489 13934 
13571 19274 8049 20745 14900 8992 15695 19172 15836 
19654 8932 13179 17888 1856 5221 4263 21208 21808 
6903 11083 13277 15889 21189 15123 21057 2020 16894 
3967 17379 8447 11472 1719 18267 6623 4321 3769 
612 5943 3268 15907 18944 17820 15106 12005 17087 
14305 9243 10554 15811 18292 17230 20323 6241 15003 
10967 20266 21724 16373 15215 8704 21635 1095 21131 
3533 387 6240 17921 16629 3534 11563 17298 11475 
12013 10753 11592 16552 16106 16026 21771 18106 15192 
207 20759 12950 8969 10603 13724 17872 8140 6696 
1386 2139 48 8336 5779 17552 5156 8506 3838 
20263 19293 12568 8814 12153 12418 4198 8279 11627 
10320 15466 16566 11295 19248 18255 3906 5990 1242 
8799 8746 10741 21257 12076 5369 8291 2042 9897 
21464 17495 2142 8826 17211 14400 7002 15711 9998 
4207 2219 18044 6086 4229 16138 655 14205 21834 
12686 18305 19379 8572 485 15301 10361 8104 7793 
17555 8472 9935 10613 149 5542 1015 903 3125 
3091 14241 19864 511 9765 3441 14862 11974 16151 
12688 14538 21971 19180 4 3481 2104 1401 3396 
5607 6005 3786 1614 16754 13380 12817 19469 12601 
21687 19687 11939 3525 17524 8693 10916 905 11488 
13448 21523 5797 3848 2903 7272 5018 17975 12768 