# vtk DataFile Version 4.2
Generated by LIGGGHTS
ASCII
DATASET POLYDATA
POINTS 21992 float
-0.0106668 -0.0992006 -0.0480275 -0.00536359 -0.0799238 -0.0488798 0.00272818 -0.0702929 -0.0490877 
0.00387231 -0.0479085 -0.0490378 -0.0103096 -0.0377172 -0.0480839 -0.00709282 -0.00720063 -0.0486447 
-0.00806888 0.00715725 -0.0484742 0.0016845 0.0267363 -0.0491128 0.00260564 0.0463205 -0.0483889 
0.00155462 0.0622744 -0.0490919 -0.00329921 0.0724245 -0.0490329 -0.00505207 0.0956848 -0.0488935 
-0.0124416 -0.0980457 -0.0464879 -0.0086594 -0.0976648 -0.0473414 -0.0050966 -0.0981797 -0.0478772 
0.000148933 -0.0981838 -0.0481367 0.00654924 -0.0981546 -0.0476689 0.0116056 -0.097421 -0.0467228 
-0.0147744 -0.0951897 -0.0458498 -0.00911111 -0.094087 -0.0468678 -0.00563761 -0.0945754 -0.0478379 
-0.00207933 -0.0953116 -0.0481088 0.00332092 -0.096403 -0.0480549 0.0084586 -0.09429 -0.0474233 
-0.0157728 -0.0917091 -0.0454913 -0.0123706 -0.0925015 -0.0465082 -0.00189263 -0.0922176 -0.0462116 
0.00109104 -0.0935297 -0.0481102 0.0108212 -0.0912967 -0.0468938 -0.00928932 -0.0904733 -0.0472364 
-0.00572992 -0.0909018 -0.0478374 0.000246076 -0.0899922 -0.0481327 0.00371231 -0.0888918 -0.0480304 
0.00647524 -0.0912411 -0.0476801 -0.0168092 -0.0878091 -0.0461844 -0.0141889 -0.0881928 -0.0460148 
-0.0102094 -0.0869629 -0.0469391 -0.00304741 -0.0884555 -0.0480286 0.000754223 -0.086381 -0.0481198 
0.00781905 -0.0871591 -0.0475207 0.0123542 -0.0876518 -0.046505 -0.0154318 -0.0857351 -0.0462048 
-0.0129859 -0.0846912 -0.0463368 -0.00677479 -0.0860056 -0.047671 -0.00254863 -0.0848555 -0.0480693 
0.0042292 -0.0852894 -0.0479732 0.0108996 -0.0843361 -0.0468725 -0.0184638 -0.0824662 -0.0455509 
-0.0158543 -0.0826301 -0.0454615 -0.0106699 -0.0819477 -0.0469796 -0.00664199 -0.0818766 -0.0476895 
-0.00222089 -0.0812315 -0.0480862 0.00142054 -0.081244 -0.0480989 0.00469344 -0.0829673 -0.046724 
0.00741549 -0.0835213 -0.0475691 -0.01355 -0.0798701 -0.0461972 0.00500217 -0.0806145 -0.0478678 
0.00952815 -0.0805733 -0.0471835 0.0130074 -0.0813299 -0.0463898 -0.0182245 -0.0771282 -0.0456414 
-0.0155783 -0.0768997 -0.0455647 -0.0104497 -0.0781665 -0.0470308 -0.00686389 -0.0781081 -0.0476478 
-0.00325933 -0.0777446 -0.048012 0.0028282 -0.0774787 -0.0480758 0.00642066 -0.0770262 -0.0476985 
0.0100138 -0.0768732 -0.0470763 -0.0124777 -0.0750105 -0.0464754 -0.00891874 -0.0748005 -0.0472952 
-0.00532745 -0.0747284 -0.0478698 -0.000450013 -0.0754359 -0.0481492 0.00427467 -0.073983 -0.0479599 
-0.0154849 -0.0731482 -0.0456013 -0.0124074 -0.0713444 -0.0464958 -0.00886587 -0.0711647 -0.0473019 
-0.00523087 -0.0710692 -0.047867 0.00113497 -0.0721402 -0.048108 0.00892121 -0.072329 -0.0473201 
0.0124618 -0.0725801 -0.046515 -0.014543 -0.0684571 -0.0459223 -0.00177129 -0.0698874 -0.0481194 
0.00536351 -0.0701902 -0.0478301 0.0102117 -0.0689358 -0.0470329 0.0131947 -0.0699948 -0.047042 
-0.0110771 -0.0673319 -0.0468595 -0.00735167 -0.0678703 -0.0475738 -0.00253679 -0.0657539 -0.0480719 
0.00179665 -0.0680507 -0.0481031 0.00509711 -0.066562 -0.0478642 0.00858195 -0.0656428 -0.0474087 
0.0129604 -0.0666401 -0.0464019 -0.0142809 -0.0646229 -0.0459893 -0.0113258 -0.0647079 -0.0474812 
-0.00676275 -0.0642887 -0.0476653 0.000884476 -0.0645246 -0.0481181 -0.00981657 -0.0623169 -0.0471392 
-0.00653708 -0.0606672 -0.047707 -0.00302093 -0.0615278 -0.0480277 0.00280786 -0.061437 -0.0480681 
0.00605375 -0.0630482 -0.0477404 0.00917691 -0.0629246 -0.048046 -0.0130378 -0.0597336 -0.046322 
-0.00953594 -0.0586881 -0.0472105 0.00631162 -0.0594209 -0.0477083 0.011585 -0.0604886 -0.0467213 
-0.015291 -0.0562971 -0.045677 -0.0118244 -0.055811 -0.0466623 -0.00697903 -0.0561406 -0.0476278 
-0.00383701 -0.0579394 -0.0479779 -9.65939e-05 -0.057032 -0.0481382 0.00396861 -0.0566543 -0.0480033 
0.0092214 -0.0572435 -0.0472567 0.012323 -0.0554401 -0.0465537 -0.0137468 -0.0525791 -0.0461346 
-0.00932146 -0.0532296 -0.0472249 -0.00244477 -0.0542528 -0.0480768 0.00113716 -0.0535851 -0.0481119 
0.00495008 -0.0531555 -0.0478769 -0.0154329 -0.0505979 -0.0467146 -0.00574221 -0.0527298 -0.0478381 
-0.000759837 -0.0502691 -0.0481601 0.00480074 -0.0508687 -0.0464337 0.0070755 -0.0502103 -0.0476145 
0.0100106 -0.0526222 -0.0470738 0.0132834 -0.0512307 -0.0463029 -0.018851 -0.0494295 -0.0452545 
-0.0133455 -0.0489324 -0.0462442 -0.00988333 -0.0496333 -0.047127 -0.00417252 -0.0490416 -0.04796 
0.00287196 -0.0501776 -0.0480667 0.00818371 -0.0479693 -0.0484877 -0.0112357 -0.0460313 -0.0468255 
-0.00732702 -0.0470754 -0.0475726 -0.00195448 -0.0461498 -0.0481056 0.00223613 -0.046103 -0.0480826 
0.00608054 -0.0465672 -0.0477358 0.0115524 -0.0464726 -0.0467304 -0.014761 -0.0447854 -0.0458519 
-0.00859139 -0.043595 -0.047354 -0.00505532 -0.044256 -0.0478784 0.00449148 -0.043251 -0.047939 
0.00880948 -0.044079 -0.047344 0.0125413 -0.0427682 -0.0465058 -0.0151014 -0.0407334 -0.0457522 
-0.0120341 -0.0424938 -0.0465892 -0.00942506 -0.040042 -0.0472176 -0.00587075 -0.0404997 -0.0478263 
-0.00395228 -0.0409719 -0.0460215 -0.00245793 -0.041717 -0.0480678 0.00117312 -0.0417736 -0.0481067 
0.00714682 -0.0407905 -0.0476036 0.0131269 -0.0402195 -0.0469795 -0.00328169 -0.0379465 -0.0480182 
-0.00101907 -0.0384766 -0.0459406 0.000380806 -0.0382092 -0.0481307 0.00127815 -0.0397767 -0.0462367 
0.00384763 -0.0393073 -0.0480132 0.0102397 -0.0389671 -0.0470265 -0.0150156 -0.037089 -0.0457755 
-0.0110658 -0.0355268 -0.0468605 -0.00680673 -0.0369913 -0.0476643 -0.00589945 -0.0348924 -0.0461845 
0.0030387 -0.0357288 -0.0480602 0.0065912 -0.0369437 -0.0476774 -0.0161229 -0.0327397 -0.0453637 
-0.0148317 -0.0345309 -0.0468832 -0.0126148 -0.0322538 -0.0463921 -0.00805958 -0.0335569 -0.047443 
-0.00450753 -0.0329096 -0.0479273 0.000201196 -0.0334528 -0.0481417 0.00532946 -0.0329127 -0.0478329 
0.00876638 -0.0340448 -0.0473476 0.0123237 -0.0344895 -0.0465537 -0.00964986 -0.0302854 -0.0471791 
-0.00698133 -0.031416 -0.0463245 -0.0012097 -0.0300928 -0.0481592 0.00250372 -0.0306366 -0.0480816 
0.00870551 -0.0303868 -0.0473702 0.0130733 -0.030665 -0.0463497 -0.0187543 -0.0280603 -0.0453667 
-0.0162778 -0.0291092 -0.0453038 -0.0128159 -0.0285821 -0.0463829 -0.00580314 -0.0294475 -0.0478348 
0.0064763 -0.0274934 -0.047691 0.011285 -0.0272258 -0.0467924 -0.0150085 -0.0257417 -0.045783 
-0.0115133 -0.024896 -0.0467426 -0.00831203 -0.0267446 -0.0473977 -0.00308906 -0.0269804 -0.0480237 
0.00133226 -0.0251608 -0.0481046 0.00873102 -0.024642 -0.0473611 -0.0141385 -0.0222214 -0.0460208 
-0.00552979 -0.0242893 -0.0478673 -0.00194372 -0.023527 -0.0481063 0.00487794 -0.0238764 -0.0478944 
0.0114416 -0.0222891 -0.0467582 -0.0113015 -0.0200828 -0.0468029 -0.00813671 -0.0217849 -0.0474329 
-0.00390389 -0.0204628 -0.0479664 0.000385543 -0.0206673 -0.0481267 0.00432852 -0.0202844 -0.0479643 
0.00787372 -0.0210827 -0.0475195 -0.0178905 -0.0184271 -0.0457647 -0.0145349 -0.0186083 -0.0459203 
-0.00753325 -0.0180731 -0.0475408 -0.00174496 -0.0168031 -0.0481195 0.00197542 -0.0173948 -0.0480879 
0.00902642 -0.0176325 -0.0473125 -0.0137504 -0.0149615 -0.0461353 -0.0103312 -0.0157944 -0.0470535 
-0.00514088 -0.0153457 -0.0478742 0.00552458 -0.0166422 -0.0478047 -0.0157358 -0.0119154 -0.045509 
-0.00796125 -0.0127826 -0.0474709 -0.00317683 -0.0121514 -0.0480338 0.000151334 -0.0136084 -0.0481395 
0.0040576 -0.0131054 -0.0479921 0.00968084 -0.0132826 -0.0471549 -0.012305 -0.0109888 -0.0465324 
-0.00547911 -0.00910614 -0.0478547 0.00147779 -0.010223 -0.0481069 0.0115606 -0.0101555 -0.0467246 
-0.0139067 -0.00775145 -0.0460767 -0.00186734 -0.00875048 -0.0481166 -0.000719136 -0.00667137 -0.0469232 
0.00161567 -0.00659231 -0.0481042 0.00469417 -0.00853188 -0.0479221 0.00829328 -0.00874136 -0.0474628 
0.0134253 -0.00704825 -0.0462601 -0.0123999 -0.00576121 -0.0475558 -0.00907005 -0.00617225 -0.047272 
-0.00554502 -0.00485186 -0.0478481 -0.00130777 -0.00440807 -0.0481522 0.00642863 -0.00533989 -0.0476931 
-0.0134522 -0.00378171 -0.0462095 -0.00834101 -0.00256171 -0.0473947 0.0033518 -0.00340116 -0.0480544 
0.00645921 -0.0015479 -0.0476894 0.00998035 -0.00223034 -0.0470807 -0.0158889 -0.000998601 -0.0454453 
-0.0139495 0.000222559 -0.0471284 -0.0114541 -0.000793553 -0.046761 -0.00800902 0.00106186 -0.0474504 
-0.00481105 -0.000608252 -0.0479033 -0.00118615 -0.000769989 -0.0481613 0.00242658 0.000111205 -0.0480807 
0.0108111 0.00130315 -0.0468943 -0.0146214 0.00252962 -0.0458859 -0.0111291 0.0028297 -0.0468489 
-0.00390536 0.00297475 -0.0479634 -0.000215933 0.00304336 -0.0481421 0.00397591 0.00339695 -0.0480059 
0.00730984 0.00198713 -0.0475977 -0.0149033 0.00618333 -0.0458091 -0.00735118 0.00465136 -0.0475618 
-0.00207514 0.00621978 -0.0480903 0.00890432 0.00527636 -0.0473178 -0.0104988 0.00640349 -0.0470316 
-0.00533816 0.00769816 -0.047383 0.00192055 0.00639181 -0.0478462 0.0055309 0.00663208 -0.0474383 
0.0119061 0.00807838 -0.0466537 -0.015465 0.0105087 -0.0456229 -0.0119665 0.00983129 -0.0466163 
-0.00841958 0.00965148 -0.0473855 -0.00353961 0.010803 -0.0479915 -0.000148822 0.00935958 -0.0481601 
0.00359094 0.00965377 -0.0480482 0.00775504 0.0103876 -0.0475335 -0.0148188 0.0141518 -0.0458343 
-0.0101957 0.0129994 -0.0470842 -0.00658526 0.0129496 -0.0476955 0.00136839 0.0126583 -0.0481049 
0.00501963 0.0130015 -0.047865 0.0105251 0.0127104 -0.0469575 -0.0119074 0.0162343 -0.0466381 
-0.00817774 0.0162218 -0.047428 -0.00272009 0.0146695 -0.0480512 0.00286121 0.0159731 -0.0480644 
-0.0154956 0.0180358 -0.0456051 -0.0100446 0.0193205 -0.0471016 -0.00490917 0.0177503 -0.0479017 
-0.000880234 0.0178691 -0.0481592 0.00603991 0.0177249 -0.0477389 0.0112284 0.0174668 -0.0467967 
-0.0132563 0.0208188 -0.0462721 -0.00712124 0.021441 -0.0476028 -0.00443655 0.0214903 -0.0455926 
-0.0035182 0.0211062 -0.0480003 5.50971e-05 0.0217766 -0.0481331 0.00324219 0.0200281 -0.0480624 
0.00873663 0.0202161 -0.0473708 0.0123636 0.0209157 -0.0465481 -0.0163133 0.0225311 -0.0452948 
-0.0103977 0.0229319 -0.0470453 0.00366755 0.0243345 -0.0480368 0.00593514 0.0243145 -0.0465903 
[...]
POINT_DATA 21992
FIELD FieldData 6
id 1 21992 int
19841 19296 9214 12014 12109 18044 15775 19179 11188 
12110 20907 19342 541 5759 4121 69 3366 7007 
354 7640 3639 6689 7129 2550 6734 5884 5954 
796 7303 6385 5171 2307 3158 1271 19127 1222 
6804 5980 7028 2803 7466 18789 4613 2025 4214 
7425 4012 12012 6194 5773 4885 5649 4466 7874 
1074 3319 1760 6290 7762 12863 4726 4295 2911 
2788 624 6662 7719 6780 4240 7224 5303 5801 
2189 3524 5452 549 2163 1128 3330 2481 4662 
2779 6317 14367 6568 6305 7451 2362 2273 5242 
2439 3165 11682 6224 5500 6421 724 2491 2501 
6450 17155 4171 5271 6171 3048 1069 4103 7541 
5628 1816 756 6111 5485 7225 3913 1148 6857 
418 21029 4845 4487 17867 6209 5949 5841 9447 
1702 4203 4979 7669 19529 3557 2935 4805 1391 
4392 2 3174 4233 321 4722 6704 2736 1696 
5409 2315 3228 10128 4503 6732 2210 21775 7381 
8741 1637 8744 6629 657 7570 1273 583 11584 
4622 6600 1323 16658 2909 7307 2270 2714 3642 
601 4477 171 13573 4650 5080 885 2446 10803 
1468 3535 6244 6528 3606 1808 4033 2569 6789 
4572 169 5275 7268 5573 1932 5 5898 7706 
6399 1979 2280 5973 19374 1002 5943 5991 1908 
3198 2738 2380 6240 420 448 5779 3869 421 
3510 5529 269 6086 1540 6403 1420 1789 20018 
7572 3600 1615 5775 20095 2342 3125 2872 6998 
26 3786 6916 2820 4166 3876 16405 187 7272 
6005 3996 77 7188 6423 4475 1680 7606 1454 
4107 3546 6333 1423 4414 1559 865 6424 2185 
1059 1510 4090 5173 1940 270 2399 870 1826 
7428 3567 3815 6613 1746 1157 5547 2659 2940 
2977 1483 1577 743 4688 4262 3522 5289 11444 
349 5916 3485 687 6389 6046 3579 4977 18104 
5664 7701 7671 2965 5717 20654 5067 1974 1523 
2281 7608 5594 344 124 1025 3677 2054 5310 
18460 5569 11144 391 2164 16243 3620 1096 1012 
7070 7458 5785 5886 6381 7766 5600 11104 6263 
605 4903 2541 4865 2405 9909 4176 110 6454 
6218 3656 16924 6313 2302 2402 1434 1129 6235 
17989 3392 5570 2131 1389 1082 3377 4755 4674 
5931 6952 7663 6199 4608 7687 8 1734 9097 
109 1994 1519 6116 296 18581 3527 256 7579 
6884 3155 4080 6053 7327 5177 1863 2447 3075 
3030 501 3286 1821 1465 4386 1455 21778 7373 
3636 5982 1409 2428 4376 5135 5831 1287 920 
6743 7400 2084 6124 6007 4655 14065 2775 2519 
9142 1693 293 3113 2354 3920 5843 407 6700 
5937 4411 5548 4540 12602 5742 5707 15610 7012 
4707 1131 5397 10369 6445 4962 3615 7607 3109 
4616 6324 6350 3359 4960 1419 7044 5560 290 
7442 3360 482 2634 6990 6353 4108 3523 5475 
4511 4714 5286 6368 6523 14491 591 1184 888 
16911 2989 1411 2284 7771 1947 5689 6306 1016 
4505 1767 6419 5824 3896 6127 7673 6150 792 
7778 6511 7209 4743 7181 1567 1682 3740 4970 
7170 788 5710 661 5720 7483 4691 5694 5885 
3346 4393 6187 5250 7507 3577 7295 4316 2593 
5901 7732 21895 4438 1336 7204 7038 17814 8777 
6810 1058 2538 1482 6013 14650 2028 19998 2510 
5629 4950 4666 5477 7433 21804 13632 5699 10802 
3172 3950 5383 3088 1854 6301 1997 1221 18924 
4676 3382 1861 2310 2000 3240 15905 3371 3221 
4895 7424 5624 11538 466 1335 5030 5420 1491 
7026 6826 6760 3003 2802 4531 19642 2883 5702 
10344 5944 7482 3705 311 5623 65 4202 2699 
19027 4820 14239 5853 4851 6335 689 6000 5471 
1993 3888 6170 10823 4079 3177 6901 4762 1190 
413 2874 5240 4612 1292 4450 15059 6243 1798 
1930 3755 542 16259 7457 5576 3670 8920 524 
7169 3126 5800 4659 125 4104 3103 3907 107 
6 6300 3156 4632 6015 3594 15964 560 2239 
5605 6841 6477 18515 17903 10142 3117 4112 10430 
5939 3574 3945 7581 7415 1687 6001 4184 18939 
5514 4133 993 5261 3068 18274 6757 2904 337 
1750 2944 777 6695 19856 14056 1250 7743 12707 
11897 416 1645 2026 537 1191 1392 7264 19226 
2397 4412 2831 19517 4886 4352 2693 4467 1303 
5889 8223 2487 6664 5751 3814 14886 970 1795 
9601 3251 2865 3365 2953 388 3181 12599 4355 
1694 440 2197 4930 2190 740 5210 2048 1205 
450 4877 8631 3268 6136 4281 14657 5096 6559 
17552 2086 4122 7782 5170 7103 928 2542 2011 
4119 17834 288 5156 11069 3715 5148 6277 6105 
6751 1552 1415 21162 4055 1488 3115 6478 6651 
12872 8799 4229 7447 20479 789 714 5317 4187 
2468 4579 3091 480 98 442 6812 2602 7547 
17654 1614 346 7391 7761 1 13800 1588 10962 
5018 194 2676 3390 4283 2217 4303 5129 13838 
4915 14703 1014 1723 1913 2027 1557 4221 1040 
2532 4328 2603 3340 6902 255 6837 16108 7273 
2721 3616 7436 7489 6911 1440 6404 19186 7552 
6694 3548 2710 21036 4464 3387 17028 1383 3999 
1675 2921 7540 3464 6402 2096 5539 6522 19732 
5863 4648 4086 985 1817 2577 7032 4138 2290 
2622 2530 5929 3483 2476 1104 6701 7084 3016 
890 18203 2959 19065 2455 810 5823 15999 3487 
3362 5219 4556 1314 2051 4561 5367 3267 4800 
10862 409 2792 5502 339 5374 7594 5661 4072 
2465 6703 4149 4052 6593 4488 2675 7724 40 
4941 249 335 7613 10139 2425 4391 496 10084 
864 7621 6325 6050 6599 6855 3998 2404 741 
7354 6417 7350 5197 1414 2846 13167 1656 13533 
983 20034 2115 5772 21146 4685 2075 2673 4312 
6047 3722 4836 6066 7380 2509 5654 4390 2391 
4799 3580 5866 3143 4589 5695 3036 1989 7260 
6510 5338 4564 5341 798 7562 4273 892 4943 
4361 3877 19455 5012 17622 2608 7340 1898 4250 
14634 6410 15251 4293 3969 7682 1200 990 15777 
6862 18883 6102 6589 12676 1876 6737 16072 2047 
588 2618 7037 4937 19766 5439 1609 7035 6967 
6406 1591 11212 20617 4165 16687 4791 16402 7317 
5371 4009 9557 3274 19887 1382 6472 5389 7414 
488 3694 5768 4063 6506 3742 5226 7386 7079 
6553 2669 4100 1209 5971 334 500 2553 12853 
5891 3505 5185 1268 7118 7564 3658 5002 7160 
4827 7792 2711 995 935 5643 2505 4465 5436 
6621 6938 4730 2411 2617 7318 1842 1445 6198 
5406 4759 5125 154 6673 3984 86 1772 13476 
3279 7430 7502 5941 4423 152 1895 7528 5736 
4952 906 1929 4433 9667 2566 6923 5167 6566 
4253 7210 3296 4870 709 7205 5765 6707 12106 
21429 1308 3001 7620 4806 6756 3720 6279 5283 
3004 158 5950 13401 2012 2495 1805 21442 7011 
2772 5871 472 15488 626 1695 3314 5479 4980 
7253 1558 4031 4110 896 5008 9353 6448 11761 
3072 7050 1873 20943 16257 1763 13974 7538 11202 
2480 2631 639 4447 4573 1506 3032 6549 11005 
17242 17964 19039 400 11523 6130 5951 3461 4550 
18170 4159 722 2811 4191 2590 16239 3684 11927 
6380 6425 18757 2558 18815 7261 10623 6843 5761 
18591 8802 4371 5978 531 1596 6706 8145 8137 
992 1449 18468 5788 6680 1220 7077 1073 8507 
5583 17360 9927 6245 7202 2114 5819 8383 773 
2855 1704 5136 2356 1867 15635 7959 15438 6886 
276 7464 2649 6318 2644 8718 17136 7375 16743 
20001 21075 819 5936 19093 18609 6168 19874 3272 
8719 5989 5318 17075 4311 7764 498 1413 2489 
2628 3099 3354 7234 1922 20891 2930 1829 1970 
1404 4468 7739 3216 7990 6769 6131 5004 11275 
19895 13087 15286 3934 5232 11800 1211 15773 4444 
15798 6570 4249 4403 15282 3792 15828 16858 2018 
3081 4736 15237 5541 8960 8989 11114 7437 12446 
1897 9976 4889 7174 3089 3665 12533 4151 20420 
1302 6591 203 4076 6764 7335 18307 362 16221 
9548 134 1525 2750 9728 12785 14195 5419 4747 
7071 959 1332 17501 5178 1103 9051 775 21575 
4182 2427 5097 2271 12764 7744 6925 2913 437 
4998 924 602 4592 1027 426 15368 7529 1628 
18380 3097 3890 4434 2760 16009 7919 15700 6731 
11495 4211 4169 2819 260 5126 1444 4190 6980 
4702 4368 19267 21662 10292 10103 6098 19759 5696 
102 2764 13906 4042 5428 2595 15198 15586 14632 
2458 6442 1327 4513 224 19219 1828 6876 18144 
20304 19235 3791 4153 4951 5072 5446 1853 5897 
15089 3053 2907 3864 7339 10282 8931 2791 18357 
19016 4709 3304 9683 7684 2039 580 13052 3345 
4492 5365 5334 16034 1594 7954 10301 3338 5060 
3773 4163 2793 4727 295 9901 6903 3904 1197 
17158 1555 2143 7367 510 17820 15907 14478 5844 
10235 8167 10726 214 6726 6289 909 1729 716 
1549 3582 8506 3534 3850 12881 12717 16222 126 
6834 1281 1613 21615 11616 3901 20481 17921 3838 
16476 5128 228 2932 2639 5566 3331 2320 2192 
18600 4649 20869 8746 12407 10741 21257 7178 6331 
5388 3151 2951 2508 20636 996 655 7936 5298 
192 797 4282 10352 9787 359 10400 8240 3212 
6164 4398 7548 18 4583 226 5578 9451 3660 
13380 16754 7926 511 13235 3395 122 20 6641 
5591 3621 6407 9606 21278 9347 9364 7024 4067 
5001 5948 8466 5828 5302 1421 11599 827 18797 
5698 2449 15162 6364 1761 5306 2459 6770 5976 
9350 1248 4822 5520 2390 3153 56 927 1203 
20651 5794 2876 781 5509 6044 13939 5733 10949 
1347 5960 5713 862 11506 458 342 921 9647 
1948 7631 815 1553 17304 5203 4458 7694 2195 
7120 2834 3992 381 2660 6038 1023 3163 4306 
267 6415 6624 1787 1375 21474 20947 1497 13276 
1187 2982 12277 1247 16030 1879 9366 8717 1322 
162 6692 2619 3804 4084 3288 7676 5247 1502 
1849 7580 1492 1701 20659 5969 1668 21585 7319 
7166 1866 4639 682 2469 17822 6872 10520 4060 
5399 2202 14185 6720 10020 20397 7232 161 8889 
3719 2527 2148 6026 5549 18076 2066 17406 2920 
18925 950 6055 3891 2341 9958 19078 5510 15546 
13398 13876 10080 1886 3543 219 2199 6148 5168 
9827 12136 1165 14395 2363 12300 2526 18946 16518 
2945 4145 6814 6712 5213 11524 21672 1019 3367 
6638 699 4981 5016 3909 11712 11937 11106 453 
4929 3971 4245 5820 12144 3459 1936 4344 18965 
12260 5187 1178 872 6500 1476 5356 5790 5104 
1942 13329 10752 5266 7152 1394 280 14884 20339 
18655 15846 2576 7546 4118 3435 18149 4360 1366 
2100 3836 5724 10615 19354 21042 3608 19955 20217 
11959 976 14534 6178 2442 9262 1529 881 1764 
1252 6733 11335 11466 19028 20769 16939 7284 6084 
5984 7506 465 6232 19619 16927 6010 1193 19902 
4737 15077 20216 5636 3610 14664 4363 11113 3256 
3774 6343 10192 13230 4255 11173 9227 21846 6459 
5987 814 6740 10893 6966 3361 21253 19908 6357 
4954 6396 6330 6257 5802 5781 2735 3306 18202 
4284 1039 5111 7703 5935 105 7014 19275 18200 
12757 9755 21025 11154 16 6281 7582 5861 7752 
1893 5267 11118 4842 694 656 855 5120 4486 
4772 3725 2204 15637 12475 7657 19367 21599 7078 
6875 21515 19971 2833 7001 6605 3389 1385 7134 
13890 5278 4754 20301 4778 2366 2852 578 6283 
5536 7114 19731 14266 20235 4660 6768 7022 5372 
1431 4256 6914 19593 10907 5749 15125 19370 5166 
4059 813 5326 6302 18667 16104 7492 7605 131 
6684 595 21196 1634 3175 5799 2726 3647 5655 
1215 4046 7702 7575 570 16533 6748 3302 1304 
2344 4729 6352 5887 3680 4050 5868 566 6179 
23 3378 2584 4277 653 713 3480 4625 7675 
4862 3384 3925 3905 4140 6755 7008 4212 3931 
6462 384 6012 7239 11932 5378 6265 7508 3973 
3111 10003 60 3766 4535 6110 3561 5805 5398 
1067 5633 4723 5456 799 5048 2222 15297 1636 
2005 247 3402 4605 1232 17135 8822 9265 20286 
2174 14370 4315 611 8890 7534 4698 5139 6828 
5087 5028 6830 527 310 1256 930 13769 7397 
6052 8292 707 10577 10160 6711 15458 21205 2160 
4630 1086 67 1648 845 12227 12194 7680 8882 
513 20508 18739 3614 4871 2681 968 6958 1317 
3961 4760 3411 8328 20276 12350 18184 21945 9419 
7715 21034 3453 16286 8451 581 4204 663 3169 
7566 17026 19600 21539 1667 12389 16787 13002 6029 
7588 5691 3760 7563 5063 3129 12479 4095 21535 
14102 4228 3765 6030 520 17004 4239 8469 5473 
19686 13139 8396 7577 18051 2511 8201 5606 3641 
7074 701 11490 20517 6439 16370 21408 21481 10809 
9867 42 18273 19277 20059 3612 20458 7753 14609 
8742 4753 11152 449 2253 17309 3284 18874 18391 
825 18850 7262 3007 20434 20598 5157 17699 4113 
8126 534 2289 14595 6556 931 17952 16532 7736 
12091 19657 2492 300 2472 13338 751 3034 5049 
7645 13302 4188 3372 9699 4301 14334 7190 3059 
4287 6521 4769 4690 378 4007 15808 2589 20206 
4150 14518 13594 12403 183 2166 643 5307 20672 
13657 7282 5440 2035 10610 21244 17293 21049 6948 
13342 10561 15217 14519 1329 20230 3552 11641 2999 
2254 3312 1758 18174 6103 7622 16644 9502 2513 
17954 17367 19789 12324 9830 21680 20045 13158 14411 
16456 9170 377 2231 18708 319 4588 13292 4715 
18704 15780 9457 19262 10486 20267 14659 5669 13098 
571 4472 7654 19637 688 2854 10551 1565 7316 
15309 12885 9348 18613 9139 12974 21360 2209 6212 
7417 2032 3605 7358 7003 5162 20937 14440 13734 
21115 9400 16037 13389 9295 7860 16112 5858 4020 
2119 4890 18091 10627 18417 5424 257 2161 21183 
20765 1017 9980 12578 739 9660 10291 816 4041 
10913 1374 17431 9749 7760 4738 11858 8516 12182 
13908 17337 12545 7661 21917 5524 3784 2690 19899 
12450 3187 14495 4852 12506 16585 4261 5276 9182 
7342 4914 6147 4057 2946 3326 7481 21139 633 
13299 15256 10319 7441 19855 2022 7497 5592 20927 
5616 16500 3439 6189 8320 13548 20764 10799 18480 
6739 14775 121 2377 3290 2968 2790 3949 2008 
419 15639 12636 13710 1228 14811 1757 829 17233 
14134 6679 6596 4922 2111 10293 9661 3918 18905 
21642 6123 1692 4116 2729 19368 2873 12667 1443 
1524 15471 14548 15503 17489 21869 6942 16947 1665 
5204 9812 139 8336 21275 823 8105 10902 20825 
16341 17053 16340 14859 21208 8690 72 18872 11083 
19042 15889 15123 2020 3967 1719 2454 4734 10207 
5105 18367 21649 15722 3488 15068 9968 7418 5476 
21808 18944 15106 16629 17713 12005 9243 21189 14305 
17087 986 207 5179 1291 19358 19464 18559 10024 
12986 9093 8318 8772 18224 1925 10553 11563 11475 
17298 10554 4198 14840 20709 8927 2933 3408 2994 
6434 3555 6640 1028 16284 9966 1504 14252 11256 
13150 21160 18270 12468 20263 18634 8814 12568 16049 
9872 17438 8119 15699 7115 4850 4823 20961 17892 
7929 2567 3383 18868 2042 18220 20207 14709 5068 
5234 7652 2637 19408 8220 1227 7891 1728 14241 
17702 14047 20502 16991 17081 8393 19978 485 13104 
2745 963 5545 2695 21845 2198 14653 14436 12502 
12635 8492 16492 20890 7677 18178 3525 18354 1713 
3460 5458 1324 2108 17001 5110 3409 14432 9582 
7309 16857 640 13190 3652 711 776 16339 10651 
13731 17975 12768 10609 8748 18447 20189 6910 17369 
2886 2062 5660 6336 2316 1679 1123 8649 10333 
20909 14707 15236 18893 18289 292 329 10490 3672 
4644 10912 4581 4751 1992 6056 14287 425 11879 
12140 14992 8246 18213 17679 1112 6190 1405 4292 
4787 17942 516 14203 17018 4073 6374 18090 2720 
2327 1486 456 3861 4343 15917 6048 3693 2684 
85 3211 5575 15804 956 2687 5373 3056 12934 
10434 3972 474 1534 7412 4593 3233 19100 3054 
18435 19332 12852 3203 5711 3736 6643 473 6033 
5776 2906 2083 19943 871 20760 3664 5241 5637 
18670 2893 1072 21246 18691 7809 10429 14489 18662 
1985 11299 3318 8759 17199 6685 6337 13686 670 
5230 3571 14681 6230 2485 5890 21471 20341 17317 
15934 4898 1133 3313 858 8488 5946 4910 1910 
3799 17486 7389 16071 11348 15444 13520 17420 21807 
10749 11589 19446 15969 14173 15052 17408 3404 11076 
7560 4546 4037 3293 21247 14019 20729 21357 17556 
5869 20009 10047 9483 10574 2498 2203 15451 146 
2647 1249 4493 7056 2155 1658 7536 16102 17995 
16697 13256 3563 9913 10238 8541 20140 19429 16466 
17764 720 4923 6792 846 3136 4162 21693 215 
5659 6660 18642 18806 3292 9248 10972 10381 8995 
1754 17800 3556 590 318 2776 9857 2606 100 
12416 8607 12082 18855 7967 16200 15416 19373 6463 
12975 7596 16921 4599 4578 2101 6959 5584 4987 
14481 3234 1484 17607 5930 16376 14839 21280 20412 
15036 4070 19077 11351 6177 3810 7150 20419 4302 
11354 5382 7098 7511 1601 726 1690 761 2960 
12159 4695 18521 20228 6785 12814 9026 5176 14466 
15525 14412 4068 20386 6963 7598 629 271 17797 
17868 7325 19158 20922 10423 13133 19362 11019 18209 
20897 3350 2838 5000 4524 20836 8533 21822 1169 
6231 15802 5034 16420 7365 20103 12050 9752 11809 
15406 16761 10688 17566 18239 5394 2418 7266 19959 
8784 11377 12356 17370 11117 8700 3176 10100 18942 
7141 17201 3894 443 253 11513 3957 9770 6361 
20670 17045 20919 1880 14751 5108 17758 4614 12837 
6815 2225 5329 16918 6118 11547 19724 766 1606 
13905 14225 13779 7164 16696 10922 16448 9928 3727 
14098 19214 17910 4813 1310 12855 10908 1755 10420 
16083 5758 16520 6051 2653 1004 18970 1321 3953 
12413 20393 7516 20567 1364 2414 4436 6363 7351 
285 7665 10763 10133 379 12108 14516 22000 10783 
5847 16004 21091 1961 7517 530 5673 2752 14037 
749 1369 21213 6165 18810 1170 9476 4251 6482 
5433 14381 8867 17544 14054 15285 14585 18740 4065 
20777 21711 4706 552 941 5862 7364 433 7025 
11861 17319 6062 9286 2926 12376 17817 5587 21274 
7027 3327 1862 2221 5062 21401 14828 20067 1063 
15564 21621 19494 15924 14450 10009 9146 198 17254 
5704 21052 7338 3489 1470 1933 11379 16251 10997 
16926 13867 18654 13407 15098 13220 19189 1978 6519 
7639 7487 10914 4604 355 7757 16842 7868 8728 
9124 12983 1739 4428 620 3581 6977 5818 3104 
2818 4124 6139 17110 4374 2724 1903 13327 5190 
13781 6766 8039 5686 15208 4406 2030 638 2330 
7105 6149 363 6375 12762 4817 4385 3564 2448 
2680 7602 1033 4908 7469 8378 8262 7315 3120 
2216 5222 281 4708 4765 3964 2863 6774 1655 
7139 4495 17911 6931 452 7426 843 6186 3955 
4687 2800 4661 5888 3536 2021 677 6019 6502 
2707 14001 5344 7569 3417 6077 1376 4857 6225 
7693 4673 4656 6428 894 4718 967 1388 2205 
645 7392 5728 9095 495 3271 20693 6239 999 
7252 6805 5095 5411 8376 8549 13920 9628 20374 
5865 7179 6656 5423 1743 4004 8635 13685 91 
8298 8052 9992 21041 5840 3708 20656 5953 2938 
5833 515 16116 1430 19079 16191 20875 6617 1461 
10699 12530 20903 9652 2992 3242 7491 8725 15206 
2224 9445 17016 16741 21654 14892 16436 20939 7844 
12535 5358 17694 3051 6064 4575 13688 5047 2769 
2117 18816 15965 20673 11304 17468 18134 11515 16627 
21149 1280 18176 6446 1914 13141 5635 10798 19387 
17272 4024 19243 16075 10073 852 20482 3751 1870 
6237 3205 3002 21056 10297 17177 11618 20142 19009 
11885 20088 19559 10975 14574 18166 13213 16123 14163 
17766 17149 4157 9316 6672 4038 4491 1586 5216 
2113 20631 3375 10515 7720 16412 17251 4304 9734 
18688 18389 18885 18403 11987 19792 20356 21592 5850 
19528 5076 2836 10445 9627 6259 6544 320 2560 
12019 12620 16051 17195 9761 20416 8880 11438 8135 
9247 20308 14794 1590 16573 15647 8368 20552 13869 
9435 17725 15126 6106 16764 9932 7346 7578 1000 
17280 11078 4098 12561 20358 14866 10563 6040 21861 
20370 13423 20516 10546 13783 10427 20242 14419 12474 
2887 6122 16504 7355 49 2996 2394 13732 7005 
20472 13123 7175 17393 12229 16186 15906 17214 13841 
7909 12483 3700 20864 19211 15888 10449 15833 17341 
16344 15140 11890 15764 6622 16427 3798 19804 618 
3805 13393 13542 9620 16425 15585 8716 13780 17034 
16171 7456 17204 10663 18303 7797 15616 13878 13066 
20074 7689 3477 165 6765 2440 10839 13519 2466 
3323 13648 138 17816 6633 16805 21348 12662 2172 
8708 8513 13336 9376 11630 10044 5618 10785 2627 
7597 1943 820 6286 3229 4781 14215 10010 7518 
11752 14971 7956 7211 19171 18343 16908 14960 12035 
12600 9577 20116 21462 11225 15902 16826 15858 12500 
10288 3245 2288 21483 18651 8795 15061 15207 5662 
17951 8228 12457 3723 18008 19649 5254 18665 9839 
16343 16657 5441 8191 696 11850 7123 427 17842 
11060 3632 2657 11826 18587 14529 1339 3520 10855 
8900 16548 21098 16568 9999 10874 18775 16214 10182 
19445 15044 15992 1644 2365 2774 7308 2452 2383 
1677 20767 18088 20260 8310 18116 14006 14104 8054 
20704 21797 19449 14044 18495 10540 21390 4288 15602 
12293 16462 20868 14568 21923 7870 8406 278 5878 
15754 6173 3532 1807 11247 17845 11678 16616 2507 
19859 13403 12917 16334 15718 1188 8845 19346 13365 
20523 18671 7183 3455 4934 4016 13728 16241 10582 
11811 13948 10088 20449 15191 16496 14441 19599 21836 
2050 13278 10441 3467 11448 2633 11944 2133 1900 
4350 7223 3991 1408 6936 20744 18622 16159 21130 
9568 12952 19719 12695 10223 8483 18018 10302 10966 
17924 20775 10640 17722 16265 18672 18348 1279 4377 
1396 20723 4130 15853 4091 17516 11957 10920 18096 
20439 966 9294 8106 17047 14579 11244 12193 2049 
21178 9685 20364 20226 9047 16454 19258 1919 9008 
7738 6460 108 5280 259 16174 16587 6390 18758 
9126 11242 20324 8834 15343 18295 15738 10171 14953 
20384 10426 10489 19644 17263 21354 367 635 20232 
17448 3874 3141 9064 10884 15783 11203 10524 9467 
8531 20960 12436 12605 19964 3492 5364 17435 9193 
20055 13112 16451 10040 11780 17930 5497 9003 6847 
6708 3885 1977 3303 4863 14220 7865 225 21683 
20194 13247 4646 16981 14302 17389 21500 21766 8824 
20391 8441 9519 1794 18284 13185 4442 15817 155 
14192 10410 20844 7748 1450 9995 14291 1515 9100 
8560 19892 11293 16375 13842 10072 16300 17978 1312 
13558 4594 1168 10743 15287 12285 18069 14337 7940 
9570 16923 20849 18918 21290 15269 15662 17270 2328 
18173 14899 13623 13568 11052 20565 14877 5914 6929 
6962 4192 3214 4252 4232 4761 6341 3497 21400 
8050 14138 19472 18427 15823 4362 14420 9581 21192 
9534 7989 8992 8263 8498 17379 15695 11393 17218 
7235 7699 6394 21338 6267 20946 11679 8439 17780 