# vtk DataFile Version 4.2
Generated by LIGGGHTS
ASCII
DATASET POLYDATA
POINTS 10000 float
-0.00449105 0.000898554 -0.0408602 -0.00270254 0.00089535 -0.0410149 -0.000906965 0.000899162 -0.0410915 
0.000873658 0.00117795 -0.0410898 0.00265339 0.000892937 -0.0410189 -0.00180552 0.0024427 -0.0408556 
-5.30079e-05 0.00274987 -0.0411023 -0.0047666 0.00303629 -0.0408324 -0.00311096 0.00371167 -0.0409843 
0.00289856 0.00356371 -0.040997 -0.00619879 0.00445476 -0.040629 -0.00408119 0.00522226 -0.0408962 
-0.00137822 0.00417448 -0.0410767 0.00110992 0.00419782 -0.0410918 -0.0056111 0.00615437 -0.0407287 
-0.00212438 0.00585275 -0.0410501 -0.000220983 0.00554678 -0.0411044 0.0025578 0.00535656 -0.0410201 
-0.00355025 0.00693894 -0.0409485 -0.000930701 0.00719688 -0.0410932 0.00124474 0.00660722 -0.0410879 
-0.00459845 0.008391 -0.0408432 -0.00167928 0.00883007 -0.041066 0.000317825 0.00848963 -0.0411001 
0.00246136 0.00794193 -0.0410256 -0.00637171 0.00960586 -0.0406099 0.00273842 0.00973455 -0.0410094 
-0.00465111 0.0101829 -0.0408434 -0.000952379 0.0104732 -0.0410931 0.000939735 0.0101778 -0.0410984 
-0.0054881 0.0121926 -0.0407382 -0.0037014 0.0116993 -0.0409401 0.00136703 0.0119485 -0.0410824 
-0.00377557 0.0134974 -0.0409268 -0.000464164 0.0125216 -0.0410971 0.00270807 0.0131445 -0.0410076 
-0.00549424 0.013991 -0.0407308 -0.00218099 0.0143203 -0.0410478 0.00110905 0.0141311 -0.0410944 
-0.00683234 0.015176 -0.0405368 -0.00343537 0.0156058 -0.0409627 -0.000392191 0.015111 -0.0411048 
0.00257459 0.0151634 -0.0410232 -0.00636664 0.0169129 -0.0406031 -0.00161672 0.0164157 -0.0410783 
0.000825992 0.016514 -0.0410995 0.00254549 0.0172178 -0.0410276 -0.00484344 0.0178455 -0.040818 
-0.00311182 0.0174049 -0.0409839 0.0010965 0.0182909 -0.0410948 -0.00600108 0.0192064 -0.0406661 
-0.00299713 0.0192006 -0.0409907 -0.000947791 0.0191528 -0.0410899 0.00263968 0.0192045 -0.041017 
-0.0128098 0.000900705 -0.0390529 -0.0096718 0.000898307 -0.0399509 -0.00791611 0.000896379 -0.040335 
-0.00611136 0.000919658 -0.0400921 0.00529038 0.000899436 -0.0407574 0.00749469 0.00125352 -0.0404185 
-0.0112482 0.0016497 -0.039534 -0.00680606 0.00253272 -0.0405319 -0.00338002 0.00222148 -0.0400163 
0.00152302 0.00267072 -0.0402446 0.00396732 0.00210887 -0.0409171 0.00624329 0.00252922 -0.0406257 
0.00886 0.00238755 -0.0401383 -0.0119507 0.00328618 -0.0393268 -0.00975826 0.00288829 -0.0399365 
-0.00737747 0.00384338 -0.0394084 -0.00012021 0.00399173 -0.0398055 0.00486609 0.00366872 -0.0408152 
0.00761955 0.00366528 -0.0403882 -0.0113794 0.00508338 -0.0394951 -0.00968628 0.00467754 -0.0399499 
-0.00277151 0.0049065 -0.0396724 0.00618553 0.00474235 -0.0402299 -0.00909638 0.00631002 -0.0394944 
-0.00787749 0.00529579 -0.0403401 -0.00105349 0.00614878 -0.0396374 0.000975934 0.00541555 -0.0397728 
0.00434841 0.0054654 -0.0408684 0.00784331 0.00544882 -0.0403491 -0.0120717 0.00674182 -0.0392867 
-0.0104431 0.00746908 -0.0397608 -0.00782161 0.00723524 -0.040353 -0.00222211 0.00754368 -0.039901 
0.00452589 0.00727506 -0.0408558 0.00613137 0.00649305 -0.0406403 0.00898565 0.00682576 -0.0401069 
-0.00606042 0.00774488 -0.0400313 0.00639931 0.00827209 -0.040607 0.00816091 0.0084133 -0.0402824 
-0.0124416 0.00989412 -0.0391743 -0.0100573 0.00922171 -0.0398565 -0.00809106 0.00920144 -0.0402853 
-0.00319006 0.00932191 -0.0402244 -0.000271201 0.00950282 -0.0397366 0.00153932 0.00900482 -0.0398855 
0.00515939 0.00955666 -0.0407793 0.00689253 0.00999766 -0.0405213 -0.0108006 0.0108471 -0.0396609 
-0.0090605 0.0107013 -0.0400897 -0.00730769 0.0111336 -0.0404465 -0.00539651 0.010976 -0.0394191 
-0.0018799 0.0108898 -0.0396177 0.00862891 0.0103933 -0.0401917 -0.0127943 0.0116544 -0.0390625 
-0.00662066 0.012394 -0.039364 0.000156444 0.0112869 -0.0399345 0.00334924 0.011427 -0.0409637 
0.00546474 0.0115345 -0.0407412 0.00723058 0.0117865 -0.040458 -0.0110191 0.012629 -0.039604 
-0.00904774 0.0124981 -0.0400968 -0.00758852 0.0135052 -0.040394 -0.0021818 0.0125858 -0.0405667 
0.000668384 0.012997 -0.0397818 0.00520476 0.0131339 -0.0399754 0.006844 0.0135768 -0.0405342 
-0.0118334 0.0146895 -0.0393621 -0.0101532 0.0141859 -0.0398282 -0.00419802 0.0148077 -0.0395535 
-0.000900084 0.0141985 -0.0396503 0.00412793 0.0142433 -0.0408949 0.00863525 0.0143109 -0.040183 
-0.0103552 0.015972 -0.0397738 -0.00858751 0.014986 -0.0401953 -0.00225884 0.01564 -0.0395995 
0.0056393 0.0153531 -0.0407195 0.00739704 0.0155925 -0.0404312 -0.00408548 0.0166631 -0.0396643 
-0.000305782 0.0163896 -0.0397193 0.00405208 0.0161786 -0.040904 0.00552055 0.0171317 -0.0404999 
0.00886325 0.0165867 -0.0401395 -0.0116657 0.0177418 -0.0394161 -0.00969166 0.0176429 -0.0397496 
-0.00798551 0.0176482 -0.0403179 -0.00176466 0.0174318 -0.0396252 -0.000144186 0.0181728 -0.039813 
0.00404821 0.0181415 -0.0406862 0.00729416 0.0174046 -0.0404477 -0.0127313 0.0191503 -0.0390824 
-0.0104503 0.0192014 -0.039271 -0.00888101 0.019202 -0.0401362 -0.0043378 0.0192025 -0.0397567 
-0.00189987 0.0192111 -0.0395647 0.00555989 0.0191388 -0.0407247 0.0073369 0.0192016 -0.0404392 
0.0089752 0.0185236 -0.0401132 -0.00910383 0.000902005 -0.0382508 -0.00721924 0.000895095 -0.038682 
-0.00439315 0.000895629 -0.03907 -0.00185246 0.000924191 -0.0394305 -5.56226e-05 0.000897446 -0.039508 
0.00173443 0.00105587 -0.0394929 0.00362197 0.000897356 -0.0395018 0.00628074 0.000892422 -0.0391511 
0.0083565 0.000893238 -0.038889 0.00983338 0.000896941 -0.0399107 -0.0147403 0.00194742 -0.0383649 
-0.012772 0.00238266 -0.0380102 -0.0101044 0.00243588 -0.0382477 -0.0082307 0.0022736 -0.039229 
-0.00414965 0.00255436 -0.0384318 -0.000913358 0.00246199 -0.0392934 0.000757803 0.00256152 -0.0386211 
0.00311992 0.00262067 -0.0394219 0.00497417 0.00208088 -0.0394379 0.00721763 0.00246018 -0.0391141 
0.0116224 0.0024393 -0.0394337 -0.0162608 0.00400756 -0.037753 -0.0135932 0.00380353 -0.0387929 
-0.00896576 0.00378557 -0.0385628 -0.00563578 0.00308814 -0.0392753 -0.00260296 0.00342711 -0.038672 
0.00485857 0.00381814 -0.0390279 0.00871041 0.00363169 -0.0388589 -0.0121296 0.00446167 -0.037986 
-0.0100427 0.00522064 -0.038282 -0.00483878 0.00469911 -0.0393516 -0.00131042 0.00467167 -0.0386493 
0.00210789 0.00409811 -0.0393252 0.0101373 0.00413985 -0.0398297 -0.0152901 0.00559792 -0.0381548 
-0.0135662 0.00560103 -0.0387988 -0.0079996 0.00529534 -0.0384938 -0.00639153 0.00559873 -0.039226 
0.00238784 0.00576422 -0.0387165 0.00491774 0.00560706 -0.0389339 0.00737538 0.00618474 -0.0387821 
0.00908294 0.00537267 -0.0390518 0.0105808 0.00608631 -0.0397239 -0.0146521 0.00732256 -0.038406 
-0.0107281 0.00687144 -0.0380961 -0.00716684 0.00732445 -0.038684 -0.00445425 0.00659809 -0.0394342 
0.00108755 0.00732528 -0.039454 0.00368345 0.00684326 -0.0393341 0.00592104 0.00752248 -0.0390554 
-0.0132023 0.0082844 -0.0389221 -0.0114324 0.00849288 -0.0386789 -0.00886237 0.00805577 -0.0391372 
-0.00529878 0.00780673 -0.0384025 -0.00355919 0.00802116 -0.0388089 -0.000653374 0.00780439 -0.03907 
0.00254202 0.00808064 -0.0387179 0.0040914 0.00858804 -0.039714 0.0112076 0.00776298 -0.0395424 
-0.0147029 0.00911794 -0.0383849 -0.010089 0.00985808 -0.0381823 -0.00646687 0.00908131 -0.0389011 
-0.00472802 0.00928934 -0.0392921 -0.00187464 0.00912491 -0.0390126 0.00292752 0.00979458 -0.0390764 
0.00697928 0.00897187 -0.0390499 0.00985158 0.00889058 -0.039904 0.0127733 0.009152 -0.0390716 
-0.0146741 0.0109508 -0.0383933 -0.0115152 0.0109367 -0.0380221 -0.00703107 0.0107749 -0.038705 
-0.00362554 0.0107482 -0.0392198 -0.000566235 0.0106846 -0.0384138 0.00127154 0.0104305 -0.0388171 
0.00439891 0.0106659 -0.0395961 0.00612593 0.0109181 -0.0391843 0.0102729 0.0110076 -0.0397946 
0.0123574 0.0108965 -0.0392055 -0.00811494 0.0121728 -0.0383987 -0.00430356 0.0124025 -0.0394078 
-0.00265421 0.0122377 -0.0387196 0.00227532 0.0117302 -0.0395501 0.00393164 0.012297 -0.0390292 
0.00784969 0.0112702 -0.0388385 -0.0151277 0.0127135 -0.0382187 -0.0131606 0.0134097 -0.0389363 
-0.0117995 0.0127082 -0.0379952 -0.00966606 0.0130624 -0.038514 -0.000925868 0.0124766 -0.0391387 
0.00788421 0.0130282 -0.0391794 0.00940012 0.01258 -0.0400186 0.0112252 0.0125124 -0.0395387 
-0.0157063 0.0144024 -0.0379879 -0.00733246 0.0145403 -0.0389387 -0.00547004 0.0137025 -0.0389357 
-0.00265245 0.0139068 -0.03937 0.00189246 0.0144111 -0.0395087 0.00694854 0.0145551 -0.0390346 
0.0116953 0.0142436 -0.0394024 -0.0137382 0.0150984 -0.038736 -0.00607245 0.01595 -0.0391116 
0.00071866 0.015435 -0.0385974 0.00352289 0.0151957 -0.0394981 0.00521605 0.015523 -0.0389905 
0.0101886 0.0151316 -0.039822 -0.0139218 0.0168852 -0.0386751 -0.0115584 0.0162218 -0.0384601 
-0.0085903 0.0163762 -0.0390605 -0.00294848 0.0170824 -0.0383369 0.00191062 0.0161901 -0.0397067 
0.00337505 0.0168971 -0.0389469 0.00675465 0.0164614 -0.0389929 0.0116431 0.0161106 -0.03942 
-0.0155127 0.0174578 -0.0380647 -0.0126026 0.0178127 -0.0378866 -0.0105209 0.0177069 -0.0380363 
-0.00722651 0.0174848 -0.0386962 -0.00549981 0.017651 -0.0391602 0.00172702 0.0176817 -0.0387317 
0.00622048 0.0181659 -0.0392093 0.0104271 0.0173969 -0.0397556 0.0121753 0.0179464 -0.0392568 
-0.0160133 0.0191988 -0.0378511 -0.0143887 0.018785 -0.0385047 -0.00854486 0.0192021 -0.0383757 
-0.0069233 0.0192003 -0.0391361 -0.00535167 0.0192047 -0.0382718 -0.00322238 0.0192006 -0.0383479 
0.00130218 0.0192075 -0.0395679 0.00297664 0.0189763 -0.0389603 0.00475184 0.019201 -0.0391214 
0.0106483 0.0191842 -0.039701 -0.0182879 0.000918854 -0.0368072 -0.0166091 0.000934944 -0.0375966 
-0.0136063 0.000897528 -0.0374415 -0.0109505 0.000892134 -0.0379353 -0.0054977 0.00139117 -0.0377456 
-0.00339835 0.000896623 -0.0375737 0.000844933 0.000894738 -0.037947 0.0026559 0.000895151 -0.0379622 
0.00477943 0.000894165 -0.0381098 0.0111299 0.000895313 -0.0386683 0.0128887 0.000908556 -0.0390314 
0.0148203 0.000900031 -0.0383343 -0.0191142 0.00246105 -0.0363863 -0.0175038 0.00252898 -0.0371868 
-0.0157314 0.00253656 -0.0368768 -0.011328 0.00248224 -0.0369437 -0.00851203 0.00239249 -0.0374334 
[...]
POINT_DATA 10000
FIELD FieldData 7
id 1 10000 int
9333 3408 8540 4810 3500 1693 247 7803 2079 
7174 939 150 6721 6006 4713 2306 68 6658 
332 3327 2794 4454 7670 2635 1177 4553 8301 
1130 3633 4460 3928 1251 3265 4457 410 5239 
1425 1793 6389 5676 802 6885 7706 7964 2061 
6965 2566 2309 1922 2659 9338 1015 869 6969 
7001 8858 2173 5607 204 5813 6715 5612 3352 
7674 4369 4116 571 577 2761 2568 3300 8117 
7117 3079 2971 3362 3045 2803 4682 8834 2281 
4282 1868 637 4184 2329 9699 2011 5175 3334 
6415 3856 3960 613 692 2465 6087 4142 7154 
916 4525 4866 4233 3193 2162 3589 1301 3763 
2554 4787 9354 3776 1123 943 1335 729 1111 
2692 4897 1337 3438 311 8134 4017 7860 1517 
1689 4845 3065 4827 6646 4584 144 7191 2555 
2952 4853 1186 3824 315 5007 988 1351 1518 
5057 8618 3221 2602 5088 2818 305 5141 4316 
4548 4332 5772 1424 2972 7211 763 2418 6583 
7489 3837 4564 9068 4997 8820 4275 2816 1548 
7238 1383 994 7564 1686 422 4697 5438 4214 
4483 3606 6114 6982 4405 5914 7329 5703 3598 
535 7397 2245 8722 4480 7418 5851 143 4925 
3821 4391 551 4228 2007 1087 3988 1792 4649 
7744 2445 3095 3249 5961 2857 4178 2632 4160 
7079 1001 2631 1325 1783 1223 4784 3476 2402 
6211 4656 7872 7026 8146 4204 7978 402 4522 
9643 3270 2336 9996 2339 1071 7760 7810 6738 
2085 2811 4479 3392 5496 4575 4066 1753 4710 
1290 252 2114 2189 1275 2118 4738 3099 2637 
7840 1469 861 3192 4150 2806 86 6402 7219 
1098 3342 4144 8911 2131 4760 3538 6119 5249 
8689 5449 8256 5444 4867 4172 9535 4642 7424 
158 2890 5049 4693 163 483 1460 4518 1392 
5758 1489 949 3143 1785 6916 1077 7755 1324 
1935 1055 1729 581 453 1429 1544 3647 8039 
5250 4555 8925 6049 6779 6611 6642 7411 4501 
6171 5402 1414 4318 2930 9974 5552 4299 4373 
3147 1970 3802 3638 1318 2667 8789 1916 3048 
723 6083 9180 6347 8153 4002 9437 1080 7757 
1805 980 1256 4530 616 9845 2908 1209 2071 
6272 286 1319 2284 8699 9157 6418 194 9154 
5425 289 9468 384 4099 7960 4904 789 3552 
1342 3760 2755 4456 3924 1917 2607 2697 3848 
9565 37 4674 842 2786 3394 431 766 4004 
3846 3419 717 9704 4611 3518 1236 8745 3234 
1848 2533 986 741 2948 1849 5410 2225 4831 
4028 5939 2534 9422 3287 9117 703 8118 8600 
3044 2435 4978 9418 3855 6858 5623 2119 845 
6177 4082 3253 2926 3271 5323 2967 9026 125 
3672 5013 2611 7998 6887 4512 5981 379 1069 
1879 2421 4441 6942 4164 7528 6061 8666 2898 
9762 715 2098 6157 9398 1647 2748 2481 5040 
4108 7027 5864 8052 6484 169 8533 8381 8547 
686 4943 2586 78 6464 5260 2354 4272 3430 
3141 595 3806 993 4805 1775 2565 8378 7711 
9723 4264 8969 449 558 690 3059 418 2234 
433 4755 910 7935 5135 9563 496 5876 2668 
3499 6852 8975 3474 4331 3154 7548 9228 1121 
6202 4287 9039 3790 3811 7885 270 4242 1197 
5316 9102 3341 3746 2129 2581 3734 8569 2679 
3764 1514 7137 7625 292 1790 4994 2031 1739 
2417 3867 8320 8314 3150 3908 1201 2395 3537 
859 2032 8312 3207 2872 339 1904 7295 7218 
2943 2593 7829 8773 1600 3246 8007 1058 481 
3261 5755 2428 6863 3158 3113 2702 72 4462 
2068 6839 4319 3140 7862 6790 8023 5031 981 
4644 1120 888 1436 8751 3571 2858 5138 2181 
6710 8475 2323 3724 264 4874 4293 2249 356 
215 2231 4665 8705 7078 3876 6148 9197 3245 
3588 6548 9490 826 3907 527 498 3614 9519 
3368 1807 8192 1129 1585 2486 6071 5393 7029 
2627 4494 9407 5071 8949 495 4869 2995 8397 
3001 6645 6670 2598 4854 5276 6672 8684 8095 
1389 2893 4673 2420 53 7766 1773 2471 7103 
6137 7931 1629 2868 6763 4839 2259 1989 1617 
8743 3893 7918 2230 8610 4363 4166 2412 2870 
5872 2149 8731 6708 2277 5699 6509 6241 1125 
1963 4722 5884 9300 975 2792 7530 6158 4775 
1731 2409 3173 9961 2116 155 1449 8715 8932 
2456 1722 6580 9896 1343 6938 2326 1010 3244 
9250 935 4748 4716 8516 3377 2282 1883 8999 
706 767 3485 3920 4629 7754 4067 1193 1662 
2657 6566 3578 3524 5094 1271 797 3579 2595 
2606 865 9262 5603 806 94 5295 2496 1114 
1520 8652 3152 5372 1705 1477 803 833 2836 
80 9657 3641 6845 1529 4667 2644 624 1668 
5515 3576 8527 8959 9636 8073 5472 6937 2379 
807 3170 3993 4268 1735 9514 9342 2756 5600 
8371 1182 7066 1204 5266 6960 580 9408 8940 
3491 5418 8479 3383 6565 1897 8071 2408 4192 
608 1902 9487 6591 1721 75 3348 1064 4130 
6180 242 109 2388 7011 2585 5644 1119 9165 
9682 3627 4461 415 7531 5935 3567 2844 8197 
2014 5201 3198 528 536 3590 3864 6741 2886 
253 4631 955 9512 1402 6508 985 4365 9683 
9662 9466 5528 7714 217 6686 7627 716 5990 
1284 1750 6025 8963 2047 9057 4804 9605 1634 
4879 9858 2793 3473 4883 4041 6687 3494 4205 
3549 210 2107 744 9435 2240 3289 3994 9799 
7631 5056 1706 1556 3021 3311 2140 1664 2835 
460 5697 5120 8124 2238 1802 2932 7529 9910 
5045 90 1669 818 8593 8492 6279 7240 4359 
9632 8161 617 2479 954 6614 1784 20 9375 
4961 2584 750 3358 3599 8519 392 4615 1839 
7681 6289 4463 5742 9712 66 9867 1871 4698 
509 1244 3593 2160 6920 462 5814 8273 2156 
6247 855 2023 507 7108 487 1677 6109 518 
1972 2360 5643 7130 2800 7538 1003 6476 3275 
3018 7144 6761 9489 3725 7801 8447 932 267 
4838 8445 4425 4726 3512 2907 5293 5634 3522 
7016 6650 5966 5630 7636 2676 117 1621 4188 
6778 2006 728 9099 3426 3013 1856 9066 6979 
9497 5750 6167 1410 2150 4432 1066 1885 645 
5684 3681 6923 1495 1594 1799 6444 9291 2163 
4803 1487 9428 7611 464 2597 1092 6689 793 
9941 5111 6014 3940 8102 4118 966 4401 6069 
6901 8084 7912 3703 5736 2829 2101 206 3973 
2092 3085 7176 7152 182 3823 3028 8362 5422 
9043 5089 3185 6538 7789 2876 4031 2947 1891 
5144 2867 2561 6046 9595 8358 40 8804 8899 
978 8951 1606 8510 2044 4964 8762 9225 6210 
9470 6268 3890 2051 2879 1870 1765 2401 5162 
2383 5101 7574 7866 2991 3165 4036 7007 6612 
9280 6527 8361 8782 6023 6098 4981 4077 653 
4820 6824 3545 2725 3801 2860 9515 9775 4890 
7520 5695 2994 4128 5548 5534 2669 5593 8952 
7412 9939 175 5105 9319 5822 8082 3106 6461 
6572 4721 3236 3849 479 9822 6516 4310 9915 
4983 6522 721 5272 1536 6762 1002 5618 8796 
4797 2319 3616 2986 463 92 2147 1561 874 
9975 3418 1981 233 9078 5616 9038 2654 3711 
2736 4407 4246 411 1833 2743 2274 1862 4801 
7342 8986 8903 7901 5212 2951 9742 3181 8852 
5905 6156 6045 6994 8205 6499 2484 8428 5713 
3403 6753 9195 5221 570 9284 5356 174 6423 
965 1932 7433 7788 9469 7438 4963 8419 5278 
968 5441 2945 857 6373 4411 6028 5525 2513 
1013 127 9801 3208 1400 7260 3168 3517 1814 
6467 9620 6318 9619 2258 9800 9508 399 3631 
4842 9883 6056 1074 5945 4109 5605 8832 2210 
9348 914 8828 6854 8220 7871 372 3970 5554 
8269 3516 9171 4196 9761 1052 1744 3488 1794 
2884 4658 1797 2317 1140 8178 5526 420 2959 
9186 5518 8463 6569 1479 2260 3015 9190 3883 
3451 8955 2263 5381 6286 705 5776 3514 8305 
3119 4955 6740 9119 5692 9634 4849 5264 8611 
6588 1086 4690 8212 3296 7765 9677 4944 5561 
6886 7222 1327 1988 224 9281 4141 1471 9724 
1016 8030 4083 8592 572 2077 621 4394 9124 
2441 9041 6578 8375 8297 3983 8816 2531 1259 
7348 3604 5848 3077 8494 4517 2472 6888 2008 
2862 1749 2500 844 9464 4329 5790 5637 2204 
4493 8750 1208 7321 1984 1763 7827 2671 2938 
5118 6133 5086 7444 5306 8286 9817 9042 7854 
9601 4134 8945 4058 1538 948 9701 8019 2558 
884 477 3611 6780 7914 7958 7536 9567 6288 
1710 516 4255 8544 2345 9087 4643 4043 9163 
7867 5821 8288 7667 3755 9784 7900 6633 8550 
3825 6080 2151 9220 9217 9814 657 8207 7207 
2737 5468 4056 2588 4500 5661 8728 5718 8757 
183 3019 6893 8939 9654 1954 4353 9587 3809 
2628 776 4443 2940 4101 4941 2425 47 4434 
4422 4566 3629 4509 9050 4506 4841 2292 6884 
2618 4311 1127 9751 6312 6951 9088 168 4734 
79 3322 5267 4740 1571 2155 756 508 3027 
4554 4334 5824 3762 1754 9415 2124 3111 3286 
722 374 5327 373 4532 22 2321 7141 952 
8875 8187 7844 4707 967 4966 9267 3440 7691 
4027 7470 10000 1566 5784 3010 2717 3252 5360 
1191 9018 4320 1190 9608 4717 519 989 209 
3917 1278 2351 7491 7114 7252 8355 3892 8761 
8063 8582 1507 5305 2117 4426 3575 3202 7771 
493 4639 8360 6266 8464 2661 5108 6720 5131 
181 7 2769 4482 5001 7054 1940 2254 65 
4715 6240 9875 203 1825 2903 8987 1732 5150 
1584 6772 6625 4765 8800 6475 7273 4912 9438 
2217 3344 4846 4988 4026 3981 3069 7156 8126 
5335 8332 1907 3939 4018 280 3623 8848 8979 
319 7118 6895 8292 6153 5379 5385 88 4926 
6277 7952 3424 107 1007 5187 5922 4809 2504 
8437 7814 953 8814 9189 6616 9973 3916 6126 
6673 1894 8011 3373 5084 71 8523 665 1804 
6086 2706 8055 3546 6789 9271 5288 2183 6301 
6783 5849 2257 198 858 3094 8624 4910 5198 
9774 7539 3915 7200 8556 1183 6890 6647 9617 
9753 5431 3349 5812 246 4777 4330 902 839 
8923 8723 2305 8364 8359 1896 9359 9194 1500 
3745 4370 7512 609 9967 9263 6766 9876 6915 
6376 4622 2766 3169 5032 3858 8075 5668 1313 
4247 7395 3231 2980 9022 1345 5294 5493 4974 
5320 8319 491 7544 380 9139 7697 9414 1146 
6353 9940 6678 197 3385 6707 9288 7802 8485 
6712 9655 4613 6593 1379 170 1547 2982 1933 
8069 1865 2457 1032 3608 472 6214 8838 4339 
1687 4387 1128 3328 8446 1497 8203 8277 886 
5663 5132 1396 3717 5746 1531 4520 6054 5546 
3203 5192 5737 7994 3260 2742 3716 3697 1316 
1079 9108 976 5174 6665 908 6235 5891 9059 
5794 166 6878 8331 3815 1115 4008 3705 8549 
3220 3772 3992 110 2557 4357 8268 318 2878 
2228 924 2154 297 4007 3412 6961 9524 3669 
8173 8626 7100 7472 9714 2122 3387 7203 5873 
8471 9052 5155 3636 6075 1461 7220 6910 8162 
9170 6307 9607 4947 2175 5842 9323 5879 52 
6051 2655 9270 1398 7811 7308 3666 7658 1711 
615 6350 2166 4793 8554 6491 9727 7267 2331 
5566 6226 8104 6356 6355 6441 7261 4952 8619 
9890 8191 4985 7277 404 6599 590 3827 7499 
8389 724 2559 6068 6632 4560 7121 3720 4848 
9592 3556 8243 7028 6397 6503 757 4571 3828 
583 5321 3655 5114 7710 1366 7138 4601 1136 
1796 8237 1041 8367 8845 2490 9639 8920 2545 
1786 9628 7628 1657 5844 1245 5854 2614 9953 
7358 3535 531 5300 1811 7050 1377 3489 5458 
2200 769 9462 3878 7232 5211 4669 2609 1960 
2626 8634 1472 6193 6264 7466 7786 1417 8490 
9265 8748 2376 5248 1860 2109 4455 4756 5317 
9743 4033 1616 6483 7391 2371 2931 1044 1416 
4484 2985 1240 5406 2269 1468 3444 961 7583 
927 6930 881 1261 1380 3355 8698 2807 5691 
8968 9340 6582 5482 2846 8674 4087 9589 4182 
1659 9481 243 5268 3092 4143 4907 7223 5139 
5983 4920 2188 3919 3492 5495 5416 3134 4557 
5934 6062 3148 5505 334 1475 7230 922 2519 
3073 2760 140 4381 1941 1195 4778 5542 7384 
249 7019 2804 6407 1453 2464 2535 6132 6097 
9243 6201 465 2436 240 9397 9819 8994 4671 
6571 7535 1838 2130 2866 3016 8438 5188 2693 
259 3110 6815 3955 2979 2176 4546 4203 4696 
7369 1042 3533 5858 6988 7526 2587 2158 1583 
8025 5172 2414 3963 5058 7603 9161 7157 287 
1258 8981 6664 5550 5575 7297 5420 6160 6258 
1250 2551 3115 6510 1267 6436 2103 4025 875 
4736 578 2157 6486 6019 3036 1272 5919 8141 
8272 1211 6162 4157 1362 4153 5952 3534 7977 
7169 6655 5836 8336 8470 4372 8535 7292 1172 
6199 1951 7236 8885 3997 9944 1996 7463 7276 
9207 7736 7719 3808 1560 4872 2538 6020 6275 
8780 1512 6638 1780 6976 6847 5475 815 1994 
5595 1426 7390 2575 2113 977 6276 2152 153 
4177 1929 3308 7060 3792 3503 2642 1084 8429 
513 4262 605 606 3602 7762 9215 3799 7239 
6473 5440 1422 4286 6076 5160 4147 2099 1829 
1983 55 4081 1745 854 3926 5574 8347 926 
7996 4733 4626 2662 6362 4084 4312 139 7332 
2526 4220 778 1676 683 3009 7705 8113 2359 
1045 4918 4627 1695 5625 9017 7107 6197 6188 
9840 8112 5745 3515 2214 5263 8972 7976 7933 
3397 1171 9696 3305 8545 1562 5928 1320 7402 
7441 2700 3146 4652 9122 2283 8459 1759 7571 
2739 3709 5956 8349 8502 3502 1034 2757 743 
9629 9986 4742 322 5621 1336 6794 3909 9098 
584 2815 8708 4019 7434 7225 642 4884 7312 
8466 2827 8936 632 2741 7126 6104 4089 370 
3130 3463 7986 9056 5881 4573 2039 4931 3836 
5904 1504 6907 6123 3436 7021 1020 7148 9279 
8044 3770 1498 1026 301 5903 9880 5523 4063 
8702 9425 8241 4823 3964 3210 1980 1857 1185 
5387 8767 6009 1212 1014 1813 1194 9011 6314 
3527 7642 2674 2250 1040 1248 1817 3033 6364 
1822 375 8290 3375 1019 5720 6468 6254 5142 
8721 2387 5572 9656 9278 9023 4859 4064 2649 
8514 950 1991 6325 7938 8074 799 4001 4356 
8739 1859 2038 5887 4993 7708 1733 4596 96 
650 3951 7320 258 8926 9441 1218 7820 3958 
1906 7106 6607 9382 4198 4843 6135 5968 2580 
8138 2300 1964 6434 3262 8476 3242 3751 9451 
4700 8890 4040 9213 16 5061 9061 8801 2656 
1540 4085 4068 877 6260 9963 478 7326 7648 
9537 6103 3671 1192 9717 8313 5843 6291 505 
7970 3643 1199 7051 3084 8818 3131 2083 8937 
263 395 523 9483 1406 7930 4709 1234 8302 
8098 1886 8281 3741 1431 1578 843 1470 6723 
7948 323 3645 1791 9235 5642 5411 4676 2572 
8585 6215 5282 2819 2961 8215 5309 145 3100 
7077 3472 1747 2102 5331 256 6384 6358 2613 
3860 1828 5218 3180 6190 1624 6305 9176 9371 
3235 4591 931 9396 295 5484 4545 6391 5749 
6154 6310 2691 2239 8711 8086 5424 5942 1046 
8085 3406 5732 6428 1367 7780 7386 3456 7796 
4824 5390 3290 9449 6999 9987 9748 3470 3879 
3254 4416 8252 1635 9065 7890 9126 6974 4825 
2758 8391 959 8756 9516 1823 8382 761 2883 
6222 9997 4737 2256 269 7693 8088 4337 2744 
5855 3921 5060 1283 4794 1800 5818 7364 5216 
4701 8250 3366 4565 6471 3097 4586 5344 8894 
3323 4577 4110 8597 6595 367 6991 3859 1767 
601 4217 7168 8001 7086 9507 3999 2440 2720 
5173 8638 8727 7992 2896 3017 7171 1927 1323 
5632 1683 8642 1205 3391 1866 4039 6292 3932 
3910 5609 4307 7311 9025 1771 2877 8451 5971 
3886 3380 7349 9044 2301 8755 106 7833 388 
9118 4115 8398 5400 1075 5307 2084 9721 6534 
98 827 4569 918 2027 3230 7405 6478 3683 
8562 5302 1168 9076 3496 3774 6144 719 3281 
5947 2633 5130 3370 5233 3448 9440 8182 6963 
207 6604 3055 8127 8330 7555 216 5853 1614 
341 5436 3504 6656 3211 8284 4984 7553 89 
7649 6406 1167 4438 8530 6130 9816 4684 2623 
5359 6634 7132 7884 4529 2380 6395 9095 4107 
7506 8623 2837 6546 8635 7941 7363 4911 3870 
1357 2506 6386 7876 2424 3810 9503 7093 480 
3900 4074 8868 9027 1701 1602 5033 6052 4159 
4706 5702 130 6637 119 2552 8922 3410 2307 
4427 4289 9132 8239 5825 7399 8472 8278 2193 
3227 8323 7287 3682 5326 625 1309 3156 7089 
3457 937 6494 5342 7991 6603 8851 3070 171 
298 3216 8531 3835 9035 5291 3449 9644 3177 
6403 5081 6560 6760 3068 6635 7756 2899 822 
8608 8764 1533 2901 945 2498 4814 5775 5193 
7973 237 5129 3360 4243 23 7070 3477 6724 
2658 7560 7064 7568 2303 7302 1164 245 2208 
6482 4761 6309 560 771 1607 1068 4296 1803 
951 3583 4445 7048 3191 3570 3946 7774 9581 
7275 643 6843 8238 957 9242 6870 2571 4852 
2087 7696 9184 1179 1393 1702 1971 6002 1314 
7826 32 2035 4136 2826 9471 3635 9111 6801 
3649 7410 3284 4276 39 457 3057 5053 1752 
6952 2962 9433 3592 1175 5466 8989 8043 5485 
294 4222 3258 787 3587 8422 4324 6437 5456 
4539 3843 1967 3685 6379 3098 9859 1787 909 
2603 851 8226 8552 6404 688 3569 1153 4468 
9105 2774 5724 7204 3658 1390 9653 847 695 
1189 7123 409 1403 6369 6233 5377 1137 5098 
7165 3701 540 9093 7404 3630 9726 3339 9034 
6185 7357 9218 7637 829 3654 2751 4664 6822 
517 1656 4402 9233 9120 4909 3388 9356 3174 
4277 8057 4297 310 134 9307 2010 6730 4139 
899 4589 7728 1486 2330 4352 8947 2915 8303 
3979 1939 1224 7604 2749 9369 4776 6777 5871 
1704 2344 9114 5998 1663 824 4862 680 6874 
5549 234 8114 2851 5042 4822 7353 4906 5366 
5633 8966 2405 2731 1692 2073 4790 4650 7069 
4899 4782 5930 1574 1329 3901 9752 1535 254 
7669 3309 4587 2353 3285 8967 7377 461 5375 
6823 504 3052 7193 4341 3596 8384 8807 3660 
7818 2373 1880 378 3689 7524 8656 2752 2942 
8448 4521 6011 8246 6044 7264 515 3560 1302 
2738 5499 6125 5869 5627 9924 2361 2532 8726 
9212 8765 2202 3543 1176 2686 2374 8474 8468 
7921 3132 6666 9484 9331 1564 8775 2596 7567 
6639 2625 5927 8587 9897 3652 9540 4208 6460 
4646 9036 6393 1333 5153 4014 5508 7882 8663 
7778 6082 437 4503 8788 4122 5521 4472 8518 
4618 677 1005 9679 2348 539 4746 6243 1937 
4351 8859 7037 4149 8274 3536 1061 5503 8442 
1022 6008 819 1321 3626 1011 7181 5428 6733 
5752 157 1926 4568 3959 4786 8457 5588 2574 
1394 9531 2842 4971 731 7679 3104 188 7315 
4433 8144 2082 291 3644 1280 1054 6 2895 
8586 4929 9518 2854 8174 7150 9918 4096 4409 
4816 5028 5878 7251 3294 3800 2449 5808 9566 
3441 2600 160 6524 6615 4410 7430 159 8766 
7541 2041 6757 1163 6096 1543 4224 3409 8247 
9933 3058 783 7468 4317 2956 3620 9922 2382 
458 8606 7623 8478 1459 3974 5202 2168 5231 
320 3108 9694 4783 7480 3293 9069 4914 4374 
973 696 1867 764 3022 8572 5583 8021 1102 
3968 1609 1539 3816 2243 2989 6875 512 4078 
5908 1826 9998 7205 8924 5796 4029 7340 3582 
3267 9866 4449 4492 9780 2018 4104 2398 4666 
8076 4753 2813 5297 8395 1150 3427 5932 9049 
4817 8950 1444 1269 933 2433 1925 8673 7195 
4235 452 1412 9737 4202 2543 2003 5795 1525 
6066 3008 5912 5581 5337 7971 218 521 3040 
146 1289 8637 113 579 7704 7269 9249 6662 
2530 9936 4751 7423 4260 5559 5665 7325 9046 
3657 5567 7116 547 2495 1576 8316 6101 6528 
4770 4972 8931 1059 8221 3417 4749 1661 1524 
6977 21 6072 633 4953 7853 3363 3918 1047 
1103 1346 9927 3035 5531 5706 7585 7279 306 
9773 2845 6342 2108 6150 1065 3116 2462 8327 
8033 1108 794 6064 4021 9182 6245 9429 5068 
4889 2814 5200 4861 2542 36 6338 6501 4091 
9104 9298 7409 8867 3187 6320 2873 15 745 
6293 8558 7104 3736 4812 3025 6336 2126 6682 
903 8489 8520 6596 5894 2184 4651 6378 4595 
60 5970 2999 4942 488 5195 3225 5512 2546 
701 4254 231 2090 713 1106 9861 9571 442 
5714 4283 189 7072 913 7000 3829 9596 7793 
4610 5653 9431 4973 3526 6425 9899 9937 8440 
3942 3240 8351 4236 4857 3493 2358 1214 5164 
7209 3869 3124 946 1738 1070 2164 8560 377 
7675 5123 9958 9350 1078 6419 6479 848 5771 
8928 9711 5304 1815 7120 2460 3425 282 626 
7661 5519 784 1516 6674 9113 2392 3663 2467 
3612 326 4100 2404 1132 5168 6958 3897 8944 
7183 2630 6949 2997 9771 131 255 3076 3460 
1462 2442 8892 7533 1855 8878 9244 7592 510 
1405 5265 4094 8563 83 115 828 8679 3483 
9892 998 7561 3197 6940 4593 1827 6195 702 
7739 4354 6078 3702 2767 2810 4300 8123 737 
8328 5659 7398 963 101 2795 7073 1942 7545 
7284 4549 4206 5995 7009 6809 4229 3318 2664 
1113 925 7682 7142 1217 6324 631 8690 9216 
8271 7127 2759 6832 3903 8534 4781 7734 6934 
7910 2536 7046 2487 5555 6742 4350 9071 8639 
5993 7600 4892 3707 7392 786 2787 5280 7549 
5978 2227 9635 3591 4779 335 257 2900 2871 
7922 7341 9781 1006 912 4476 6401 5569 8206 
9330 760 4124 7616 3785 1141 4392 6581 8640 
3007 9296 2838 6835 4600 6959 2775 4034 2133 
6073 1381 3936 4378 4975 6530 7473 9885 1546 
97 1858 2579 118 1296 6169 3257 835 4221 
2053 7556 6269 8029 6432 1697 4863 1666 3233 
9320 2517 4818 5654 6124 4719 467 7004 2621 
2850 4527 3062 1667 328 4377 5012 7091 5206 
8199 3121 162 7645 8376 7608 3668 3710 2771 
5969 9332 2315 4723 13 4176 1294 5207 1404 
425 2093 4419 4383 229 502 5547 5959 9048 
9364 7934 7676 6430 5269 1625 7378 6732 5223 
7479 7122 6594 9452 5314 5719 550 3376 7022 
7469 7440 180 2797 736 5985 8275 3789 4366 
9529 1376 3853 5491 7989 1295 5686 1632 7111 
889 693 9590 9818 9159 7633 3179 2407 655 
5962 938 1457 2170 4998 7285 9868 2919 7082 
7244 1658 2914 8400 3595 7442 3435 5777 5929 
9399 7177 1633 5811 309 6037 164 5452 9372 
3562 5401 879 3268 5626 1454 4444 1552 3429 
11 5622 9988 8561 5407 4140 7909 2364 7745 
9520 3803 7579 8976 5177 5220 1603 1139 5582 
872 4060 3912 6598 8693 8344 8865 7700 486 
8691 7770 64 3768 8295 5079 1057 4437 900 
7988 2935 6115 6553 121 9096 7856 3906 4165 
6117 4301 2665 2135 9984 1288 4950 6390 3708 
8529 6387 9955 5711 4936 8218 5827 7010 7476 
2651 8051 1589 5568 8240 9802 1510 1391 8871 
811 1872 9946 1905 4638 2218 8172 2683 4917 
7954 9314 1781 3243 5373 4223 239 6957 7096 
3219 7262 5467 3404 5009 70 8491 340 4415 
8145 6693 5210 7247 8334 1456 279 7428 4542 
4323 684 1714 8625 4619 221 9322 7527 7179 
5121 8449 5054 1708 4335 7484 2855 8338 2211 
5178 4325 8103 1639 7375 2604 7589 1532 4430 
6921 8815 4267 9145 8548 5717 5194 5035 2013 
9852 4059 9832 8996 5709 2569 6924 5067 1374 
2929 6947 2924 7919 9135 1950 1595 9152 251 
8943 3478 2146 9697 1957 1279 7272 9506 4510 
1952 8870 5100 5245 6531 7620 1096 6099 6861 
8409 6050 8537 682 3024 9353 128 6433 9793 
5154 4541 3572 8985 2712 9317 7521 739 7178 
51 8995 7454 5000 424 1004 5405 3665 5077 
5866 3072 7836 5259 5960 8887 9258 31 4238 
7290 8628 8128 8716 3656 5897 9638 6070 8790 