# vtk DataFile Version 4.2
Generated by LIGGGHTS
ASCII
DATASET POLYDATA
POINTS 21992 float
0.00102 -0.0991997 -0.0491748 -0.00950246 -0.0830683 -0.0482268 -0.00535856 -0.0800114 -0.0484974 
0.00362888 -0.0745176 -0.0490032 0.00304305 -0.0546181 -0.0490541 0.000218247 -0.0371998 -0.0489584 
0.00435767 -0.0155259 -0.0489448 -0.00622951 -0.00169642 -0.0487459 -0.00624099 0.0217767 -0.0487441 
-0.005856 0.0202178 -0.0487869 -0.0091124 0.029668 -0.048313 -0.00836683 0.0361645 -0.0484782 
-0.0101242 0.0581602 -0.0480911 0.00220835 0.0585405 -0.0491154 -0.00768698 0.0630127 -0.0485698 
-0.00571804 0.063619 -0.0482452 0.00177006 0.0659351 -0.0491505 -0.0153715 -0.0981807 -0.045602 
-0.0118898 -0.0981818 -0.0466565 -0.0080021 -0.0981762 -0.0475055 -0.00401025 -0.0981848 -0.0459947 
-0.00105901 -0.0980146 -0.0481113 0.0031408 -0.0981818 -0.0480221 0.00685032 -0.0981825 -0.0476613 
0.0102533 -0.0970124 -0.0470583 -0.0126939 -0.0943734 -0.0464836 -0.00498328 -0.0952259 -0.0478703 
0.00162253 -0.0948778 -0.048145 0.00525072 -0.0949173 -0.047854 -0.0158111 -0.0928053 -0.0454706 
-0.00828225 -0.0936243 -0.047453 -0.00160923 -0.0932146 -0.0481061 0.00855504 -0.09347 -0.0473512 
0.0115942 -0.0915373 -0.0467345 -0.0166767 -0.0904471 -0.0462475 -0.0139562 -0.0897212 -0.0460647 
-0.0106175 -0.0908723 -0.0469395 -0.00615279 -0.0887685 -0.0456751 -0.00392235 -0.0904202 -0.0480036 
0.00239166 -0.0896624 -0.048075 0.00564125 -0.0912779 -0.0478388 -0.0167834 -0.087627 -0.0451404 
-0.0111711 -0.0869574 -0.0468177 -0.00410876 -0.0867834 -0.047973 -0.00038322 -0.0872852 -0.0481238 
0.00228868 -0.0869626 -0.0487311 0.00546493 -0.0876424 -0.0478435 0.0101209 -0.0877014 -0.0470903 
-0.0077132 -0.0860778 -0.0475506 0.0037279 -0.0844474 -0.04798 0.0126608 -0.084382 -0.0464229 
-0.0153338 -0.0832109 -0.0466868 -0.0116285 -0.0833112 -0.0467173 -0.00701569 -0.0825075 -0.0476247 
-0.00344869 -0.0832036 -0.0480585 0.000173918 -0.0836904 -0.0481423 0.00906377 -0.0834265 -0.047272 
-0.0156792 -0.0790808 -0.0465498 -0.0131693 -0.0800383 -0.0463254 -0.00963408 -0.0800259 -0.0471604 
-0.000500346 -0.0807539 -0.0461144 0.00141228 -0.0784311 -0.0481558 0.00348391 -0.0787571 -0.046479 
0.00465342 -0.0805944 -0.0479101 0.00822914 -0.0797431 -0.0474163 0.0116807 -0.0806739 -0.0467064 
-0.0136027 -0.0763642 -0.0461934 -0.0100668 -0.0763686 -0.0470557 -0.0067574 -0.0778558 -0.0476567 
-0.00456563 -0.0767343 -0.0467729 -0.00269067 -0.078048 -0.048084 0.000383352 -0.0768814 -0.0462858 
0.00472158 -0.0769407 -0.0479048 0.012118 -0.0768853 -0.0465819 -0.0164563 -0.0742393 -0.0452505 
-0.0070628 -0.074219 -0.0476232 -0.00343709 -0.0739742 -0.0480456 2.68256e-05 -0.0750707 -0.0481446 
0.00848505 -0.0760403 -0.0473715 -0.014056 -0.0716219 -0.046039 -0.0105861 -0.0723074 -0.0469426 
-0.00730287 -0.0708083 -0.0463806 5.16427e-05 -0.0711688 -0.0462399 0.00306711 -0.0721367 -0.048028 
0.0066029 -0.072936 -0.047701 0.0104791 -0.0724656 -0.0470248 -0.0163135 -0.0686514 -0.0453016 
-0.0128834 -0.0682016 -0.0464207 -0.00279068 -0.0698213 -0.0480649 0.000468913 -0.0680923 -0.0481423 
0.0068918 -0.0693073 -0.0476505 -0.00929842 -0.0677612 -0.0468099 -0.0057985 -0.067801 -0.0477669 
-0.00259176 -0.0661293 -0.0480824 0.00371059 -0.0679711 -0.0464984 0.0114985 -0.0660606 -0.0467547 
-0.0145006 -0.0649875 -0.0458947 -0.0115759 -0.0650634 -0.0459629 -0.00923207 -0.0641465 -0.047254 
-0.00563056 -0.0641412 -0.0477987 0.0013887 -0.0645401 -0.0481558 0.00513111 -0.0649313 -0.0478777 
-0.0165697 -0.0620746 -0.0452229 -0.0145542 -0.0625554 -0.0469423 -0.012023 -0.0618827 -0.0466291 
-0.00527953 -0.0605133 -0.0478341 -0.00182753 -0.0625749 -0.0481024 -0.00185812 -0.0607267 -0.0462399 
0.00419142 -0.0619314 -0.0460602 0.00748939 -0.0621761 -0.0475494 0.0109858 -0.0614288 -0.046908 
-0.0144682 -0.0605732 -0.0469699 -0.00887276 -0.0602118 -0.0473339 -0.00202932 -0.0588764 -0.0481006 
0.00146921 -0.0598751 -0.048157 0.00499115 -0.058893 -0.047882 0.00860799 -0.0587188 -0.0473528 
-0.0135922 -0.0578277 -0.0461844 -0.00584986 -0.0565221 -0.0477625 0.00119998 -0.0562461 -0.0481577 
0.00553585 -0.0553013 -0.0478404 0.0118025 -0.0570674 -0.0466469 -0.0122033 -0.0541237 -0.0465885 
-0.00511296 -0.0529592 -0.0478608 -0.00229545 -0.0552476 -0.0480941 0.00908002 -0.0546709 -0.0472629 
0.0122528 -0.0529963 -0.0465488 -0.0151562 -0.0521857 -0.0456891 -0.0117907 -0.0504301 -0.0466717 
-0.00893216 -0.0526775 -0.0473076 -0.00161549 -0.051673 -0.0480984 0.00197436 -0.0524117 -0.0481275 
0.00574012 -0.0516745 -0.0478285 -0.00781688 -0.0492211 -0.0475235 -0.00419236 -0.0491091 -0.0479561 
-0.000707921 -0.0480181 -0.0481179 0.00324572 -0.0490039 -0.0480174 0.00695074 -0.0482527 -0.0476456 
0.0103388 -0.0499431 -0.0470441 0.0131731 -0.0477967 -0.0462937 -0.0143746 -0.047398 -0.0470006 
-0.013195 -0.0457182 -0.047385 -0.00964683 -0.0460982 -0.0471546 -0.00462468 -0.0454973 -0.0479107 
0.00459814 -0.0454521 -0.0479147 0.00996394 -0.0461474 -0.0471055 -0.0150349 -0.0446186 -0.0457111 
-0.0116892 -0.0428245 -0.0467062 -0.00745243 -0.0432311 -0.0475823 0.000565924 -0.0446118 -0.0481485 
-0.0145473 -0.0406791 -0.0458792 -0.00320177 -0.0421461 -0.0480631 0.00504979 -0.0418112 -0.0478781 
0.00797269 -0.0396949 -0.0474593 0.0110632 -0.0416282 -0.0468467 -0.0126499 -0.0376348 -0.046486 
-0.00964505 -0.0396822 -0.0471521 -0.00604123 -0.0398872 -0.0477433 -0.00300841 -0.037904 -0.0480697 
0.00253126 -0.0391478 -0.0480666 0.00530698 -0.0390237 -0.0477592 0.0103121 -0.0381024 -0.0480062 
-0.0183972 -0.036327 -0.0455971 -0.0157936 -0.0361914 -0.0453593 -0.0135628 -0.0349045 -0.0472661 
-0.0105349 -0.0373055 -0.0479973 -0.0100385 -0.0349028 -0.047069 -0.00674648 -0.0363228 -0.0476664 
0.00875782 -0.0360699 -0.0473217 0.0123906 -0.0373092 -0.0465023 -0.015312 -0.0339975 -0.0466995 
-0.0126589 -0.0324521 -0.0464892 -0.00725345 -0.0326216 -0.0476053 -0.00372399 -0.0343368 -0.0480223 
0.000243658 -0.033318 -0.0481414 0.00399609 -0.0339515 -0.0479598 0.00738974 -0.032697 -0.047561 
-0.0160732 -0.0318706 -0.0453834 -0.0099186 -0.0298587 -0.0470903 -0.00287726 -0.0308021 -0.0480715 
0.00391099 -0.0303134 -0.0479623 0.01059 -0.0310042 -0.0469911 -0.0136585 -0.0289698 -0.0461654 
-0.0066058 -0.0273286 -0.0476894 -0.00254488 -0.0271827 -0.048082 0.000427306 -0.0292781 -0.0481407 
0.00726053 -0.0288831 -0.0475892 0.0113199 -0.0274126 -0.0468081 -0.016597 -0.0247803 -0.0452196 
-0.0131213 -0.0253741 -0.0463379 -0.00957809 -0.0251098 -0.0471649 0.00259428 -0.0265134 -0.0472069 
0.00599249 -0.0253738 -0.0478061 -0.0143982 -0.0219731 -0.0459255 -0.00448939 -0.0241212 -0.0479276 
-0.000446966 -0.0240806 -0.0481421 0.00311862 -0.0230157 -0.0480383 0.00942773 -0.0243306 -0.0472074 
-0.0108048 -0.0214979 -0.046894 -0.00686793 -0.0213937 -0.0476486 -0.00258995 -0.0210212 -0.048079 
0.00413429 -0.0193297 -0.0479459 0.00692776 -0.0216717 -0.047641 0.00902206 -0.0202355 -0.0483014 
0.011027 -0.0210866 -0.0468366 -0.0173758 -0.0192979 -0.0460077 -0.0147497 -0.0173108 -0.0457987 
-0.00976367 -0.017882 -0.0471373 -0.006173 -0.0178324 -0.0477165 -0.00260945 -0.0172006 -0.0480832 
0.000506525 -0.0191045 -0.0481435 0.00777248 -0.018018 -0.0474968 -0.0120085 -0.015062 -0.0466253 
-0.00494199 -0.0144218 -0.0478949 0.00187725 -0.0151472 -0.0481187 0.0109865 -0.0163638 -0.0469109 
-0.0149067 -0.0130345 -0.0457709 -0.0083489 -0.0137775 -0.0468369 -0.000498009 -0.012311 -0.0481262 
0.00183492 -0.0138502 -0.0458253 0.00484667 -0.0129809 -0.047901 0.00906641 -0.0125959 -0.0472688 
-0.0144761 -0.00937951 -0.0458942 -0.0114232 -0.0114738 -0.0467749 -0.0118839 -0.00925807 -0.0454826 
-0.00387917 -0.0109322 -0.0480016 0.0024467 -0.00975723 -0.0480641 0.00684738 -0.00961447 -0.0476531 
0.0109254 -0.00902408 -0.0469148 -0.01416 -0.00703285 -0.0470711 -0.0101663 -0.00806901 -0.0470417 
-0.00661352 -0.0085275 -0.0476736 -0.00102345 -0.00866422 -0.0481097 0.00101696 -0.00775447 -0.0462885 
-0.0181837 -0.00452506 -0.0449944 -0.0159347 -0.00604233 -0.0454186 -0.012357 -0.00520347 -0.0465549 
-0.00840341 -0.00467006 -0.0474355 -0.00440957 -0.00464018 -0.0479391 0.00148026 -0.00598453 -0.0481625 
0.00507157 -0.00644984 -0.0478705 0.00866043 -0.00621274 -0.0473471 -0.0164308 -0.00228074 -0.0452625 
-0.0130351 -0.00164029 -0.0463694 -0.000982634 -0.00268771 -0.048087 0.00357427 -0.00321075 -0.0470946 
0.00715661 -0.00290512 -0.0476054 -0.0166402 0.00134851 -0.0451876 -0.010532 0.000922823 -0.0469594 
-0.00682699 0.000630279 -0.0476541 -0.00165606 0.00043357 -0.0461384 0.00171968 -9.13315e-05 -0.0481331 
0.00587541 0.000692124 -0.0478137 0.00947984 -0.000139035 -0.0471939 -0.013508 0.00287694 -0.0462206 
-0.00845792 0.00387287 -0.0474135 -0.00400894 0.0028952 -0.0479948 -0.000385343 0.0031931 -0.0481284 
0.0032484 0.00320658 -0.0480031 0.00889012 0.00344523 -0.0472998 -0.00245493 0.00618114 -0.0480888 
0.00161707 0.00579892 -0.0460319 0.00599284 0.00558004 -0.0478068 0.0112108 0.00620152 -0.0468343 
-0.0142363 0.00643004 -0.0459759 -0.0107317 0.0066666 -0.0469104 -0.00605933 0.00658399 -0.0477466 
0.000359225 0.00848352 -0.0481404 0.00846455 0.00851888 -0.0473767 -0.0158457 0.00964437 -0.0454453 
-0.0119142 0.0103601 -0.0466624 -0.0083666 0.00937868 -0.0474352 -0.00337437 0.00969954 -0.0480639 
0.00494852 0.00932585 -0.0478836 -0.0153902 0.0132474 -0.0456006 -0.0119777 0.0139935 -0.0466376 
-0.00855775 0.0130084 -0.0473959 -0.00513176 0.0141435 -0.0478607 0.000440021 0.0121223 -0.04815 
0.00777693 0.0137329 -0.0474983 0.0105871 0.011465 -0.0469915 -0.00907641 0.0166048 -0.0472829 
-0.00230866 0.0164321 -0.0480839 0.00440123 0.0150131 -0.0479297 0.0110826 0.0151129 -0.0468684 
-0.0167194 0.0192864 -0.045137 -0.0143045 0.0166985 -0.0459587 -0.0117897 0.0167485 -0.0470776 
-0.00567331 0.0177856 -0.0477859 0.00126154 0.0172564 -0.0481349 0.00457768 0.0186262 -0.0475276 
0.00799138 0.0173619 -0.0474478 0.0112962 0.0187432 -0.0468159 -0.0142836 0.0218583 -0.0459581 
-0.01167 0.0194368 -0.0467064 -0.00823167 0.0203559 -0.0474682 -0.00330565 0.0206512 -0.0480693 
[...]
POINT_DATA 21992
FIELD FieldData 6
id 1 21992 int
13420 12644 17810 9134 20730 17099 19464 15376 18834 
12694 18961 9365 20237 12487 14637 14317 21618 3069 
7057 2182 1779 438 5385 2613 6597 7695 5313 
607 5301 1185 2443 5814 6508 6027 16449 7543 
3797 2386 5590 733 982 3139 6874 4651 6308 
12275 6818 2830 2364 559 5833 12306 835 1070 
6158 5777 3000 20594 6175 5056 3275 4235 21387 
3754 5715 7491 834 658 7555 19306 4407 12820 
785 6446 1156 2767 145 958 1841 5564 1258 
3220 3401 3370 2795 3002 6870 6152 7454 2614 
320 467 5415 297 262 6030 6602 15772 4267 
2278 4043 7500 5896 11596 5181 666 5589 17421 
2253 618 2289 18482 119 7439 2810 6957 6765 
6797 3012 4335 1217 5049 6922 7488 5202 6286 
7282 6376 250 3499 4758 6254 5778 1924 5362 
6251 7756 1677 3632 319 20499 19523 3637 5874 
3809 688 693 3235 978 5692 6560 2858 5077 
3991 2119 6134 6991 6626 2144 5730 15853 10913 
15361 911 21311 15323 5517 6979 5524 1374 10978 
3204 229 6941 4054 3243 635 7369 2782 6937 
7287 7497 4771 4142 1960 1537 155 2790 5244 
3468 33 457 1831 7554 2813 7591 1177 3214 
43 4716 6418 5523 4252 21275 823 18436 7065 
5403 698 4801 2871 4692 76 4749 338 5105 
1001 21249 4310 21615 954 1028 3171 4331 9296 
7095 7629 2979 4823 10670 2151 2138 974 10583 
13655 2809 3602 3592 867 176 5006 2695 2611 
2942 2794 5719 3364 2191 6790 3 7480 1625 
73 776 3852 6583 2698 3448 4346 7452 2213 
3861 2766 4751 622 6665 1640 6355 4354 5744 
6512 3162 5413 1546 841 6970 3854 1725 2384 
1053 5575 4345 3254 1579 4593 2374 6346 14788 
6908 994 1926 7125 5776 6659 5817 2862 6947 
478 3865 10584 603 397 4997 6230 3916 5701 
7626 4457 4189 1406 2053 7113 3756 3098 1658 
5909 794 12191 4021 6960 2155 4757 3613 4378 
19137 3997 6551 2023 2332 3506 18140 1666 4856 
6379 6188 1022 4672 1812 6993 312 6668 17624 
2840 3730 2715 4793 685 4520 14144 3674 6006 
1712 6996 1799 17334 1359 5678 5760 629 2987 
7421 1973 758 18628 6827 2460 3688 6717 6322 
2214 11513 2300 3217 157 744 10852 873 16918 
6835 987 6326 3133 4220 532 3957 6607 18066 
8131 4647 5609 4869 5622 1547 3266 21164 7311 
21266 5747 1321 7763 7280 2145 14942 4837 6532 
4991 451 2752 11769 914 5457 5315 18523 5033 
8558 11316 1928 6480 2839 5336 5574 7471 12657 
6691 4336 7717 2554 5469 4484 1531 6917 1384 
3713 372 5045 6202 4341 6323 5459 1533 5010 
200 4183 21608 16245 3554 3880 140 998 1681 
951 4154 7101 4479 2014 7610 4931 19896 241 
2837 11446 4158 446 5577 2276 4387 1198 5852 
5859 2401 4308 7029 517 5312 2625 1528 1952 
6213 2956 17152 5505 2638 7601 7611 3039 5934 
3373 5309 6035 5035 4408 879 6319 14776 7301 
1144 3454 3406 7172 6429 734 1931 2898 2805 
6974 6274 7427 6772 1865 3085 4008 7299 2230 
7711 5095 5728 6542 1151 6045 4911 6656 5456 
4559 1599 3923 1745 4595 5454 7039 1232 2348 
3496 18283 7609 7291 515 4159 1890 3655 17015 
2441 4494 4899 10709 5766 1246 5224 6683 4575 
7397 1648 5864 2473 4175 1196 6255 1914 845 
3961 1220 7592 4767 13140 1352 2113 7566 7112 
2607 2645 11760 21757 2560 5063 3760 7563 5819 
7383 18093 1872 9490 7653 1245 2000 3714 4811 
6576 520 12561 4098 449 2489 5813 2206 1646 
5015 3805 2628 1404 1791 3630 475 8149 3987 
2440 4188 3372 7645 4202 16210 5151 10698 20486 
4468 6570 4241 424 6631 3380 3229 4781 4007 
18651 378 17742 3232 1425 4382 8795 5440 7622 
6103 1798 4736 1955 1509 10341 6312 11736 2657 
18174 4076 6370 9282 15353 20894 2295 2854 6764 
7071 7725 21754 7651 2065 1610 4588 7003 19637 
4016 1332 2271 2928 15966 6173 17170 7121 20169 
1027 602 10142 4592 4609 7313 4222 1408 4890 
426 3890 746 7229 4091 259 5280 3784 4368 
6980 4702 7494 3019 7238 3986 3874 2946 3326 
4057 1592 3994 3303 5592 1828 3949 224 537 
3124 4193 6895 7571 14192 2008 15817 4922 5446 
11047 6154 2123 1168 4709 6596 5072 747 1080 
4232 4761 2873 1594 5334 5735 4963 3853 12068 
6394 3488 4727 295 1555 2329 11779 4081 3268 
2143 1835 17453 20417 848 9658 2211 2504 1504 
510 716 31 1966 5462 13794 1850 2192 3901 
1613 1549 7289 768 10335 382 729 2637 3816 
19408 2011 6262 2641 4587 996 2320 10352 2508 
6478 5071 15415 1091 1776 3178 21845 3660 17001 
359 5317 5578 7547 840 459 5917 15553 19808 
11191 5110 9451 2108 9046 2169 827 1588 3621 
6407 2859 19363 7765 771 2316 6336 5387 13255 
1632 3988 21698 1626 6770 2459 793 2515 4274 
6647 1418 4292 781 5794 2876 7036 3010 4343 
20651 5713 3033 20311 2741 3937 4047 383 956 
862 815 3992 7631 5332 1176 2922 3699 3233 
2083 2660 15804 4653 760 2906 20947 21474 1787 
1375 690 4258 3154 7463 7153 18659 5863 4648 
2893 1104 4814 2692 4254 1824 3009 2485 1072 
3288 4084 118 6759 1500 1492 3799 7435 667 
18395 17128 11457 2264 3438 4546 14185 1866 7043 
18421 7216 4322 7521 7536 5659 6026 2148 6094 
18919 7896 5175 29 2606 21693 215 4896 5962 
1576 9857 4987 6959 3891 1299 1998 18285 6844 
5708 10305 5584 5213 646 5020 7150 2960 3909 
6148 5168 6946 1996 1954 19702 1344 4792 271 
5016 761 2477 21313 189 8350 11699 14258 6185 
5260 1149 5356 3459 1936 2346 19667 14513 10093 
6493 757 774 1169 20836 4525 4683 1676 5024 
2594 13034 6361 1394 3836 7266 5830 2183 5499 
2986 5526 1764 2100 3150 4731 4679 6520 4003 
19146 18725 4551 19095 19619 9262 1529 881 4269 
4670 1984 8477 14777 6669 6118 17910 4813 2017 
4891 6447 5963 3697 4114 7665 285 6343 15396 
14905 21710 20982 1790 7565 14381 5781 5632 7413 
11038 16349 4092 21230 6808 2262 4502 21855 749 
7703 10576 6085 6452 11774 14740 19459 4618 3248 
6062 5433 20518 2304 20040 4534 13350 4953 1094 
3389 7025 7690 913 17276 19154 6642 9588 4809 
3726 1933 3725 1052 2821 2623 6670 1627 7745 
1470 3050 3132 918 5528 4821 6264 6977 3748 
5536 584 3735 3073 6954 3473 15469 5190 3763 
3589 579 3661 1289 19623 5337 7105 1688 497 
5414 5133 4337 7213 5988 2483 8865 5455 933 
3618 5207 7192 1033 3018 7277 6367 4745 5798 
3297 3027 5264 7200 4264 4027 7772 2118 4452 
142 2351 281 7066 6141 7600 6356 1869 5229 
6645 2325 1357 8272 2674 6615 1703 5094 3344 
3287 7785 4140 1308 7729 4542 129 484 6028 
4848 7461 5883 4673 5950 4682 6291 2420 21544 
14684 1446 4320 2102 6110 16440 5206 5198 3541 
10121 2654 20129 6114 1293 786 469 4892 5621 
5423 3561 12623 10473 1560 2497 5630 4291 2080 
11564 6735 1718 4619 7641 17268 2379 7049 7774 
6052 1506 1550 4127 4847 17054 4990 4006 4900 
4115 4810 3032 722 6843 9585 6561 2785 21157 
235 13370 4483 2224 1430 2811 847 2303 18346 
16810 5959 5635 4760 6435 3369 21214 4019 9996 
3349 4445 2889 5216 7077 1073 13632 408 5705 
15580 6492 11078 7720 1221 206 12747 5729 12467 
3959 4530 9443 7943 20517 20358 3375 4239 8383 
15905 6168 2644 2855 3240 3337 5370 7212 19418 
17972 3309 7005 6439 18609 466 1335 4947 5376 
2293 20429 20319 5881 11255 7175 13732 11490 5702 
5944 7393 3530 11519 18563 11806 14039 2466 14595 
6556 931 7482 10344 1219 6457 18396 5268 18024 
11366 2376 691 13302 3323 11275 4150 13087 19027 
4820 1993 1753 3678 439 18335 9645 9198 8957 
167 18265 8620 10839 15207 13519 4249 4403 2874 
6243 16069 5919 4925 676 20073 15064 859 5662 
2035 21029 5240 1190 5906 1788 16378 2762 18233 
3939 11826 15061 1339 5541 1930 7169 8920 15694 
10645 2371 1792 2969 14104 13292 7335 3907 3103 
5559 6411 3801 15760 6745 3532 1807 1565 959 
6300 1412 9040 11758 20763 2259 1756 13728 6936 
18091 5162 6925 4632 1508 608 6422 17734 4955 
5424 18515 17431 4738 17903 1687 7415 809 20105 
6183 16174 6390 7760 4434 5261 19856 6988 4061 
21554 3141 17448 19900 16587 4863 20927 7481 2690 
7264 6695 3431 6383 3491 7748 20232 5616 19219 
3439 2595 1392 7510 7069 15287 1450 3304 1853 
1355 3179 1048 9239 10410 3497 2111 1524 7954 
7684 2487 5889 4866 282 6341 20825 19368 1443 
10282 16034 5060 3251 2865 2791 4641 17887 1963 
13426 21338 10902 9901 4930 4877 970 7093 5603 
4266 4617 8494 5895 20320 15722 9938 7418 15068 
7367 6903 2190 6054 21714 12231 1044 4824 10024 
16284 17892 11256 14252 1925 3534 11069 2086 5096 
10052 2237 7751 1949 2311 13717 15100 2567 20636 
3383 19358 288 4119 7851 95 7593 13148 15681 
20792 2773 1227 4649 1552 5156 1909 6650 4555 
5672 2378 2925 16847 1098 9787 18600 12872 4229 
6651 18127 6838 3409 2198 9347 17654 4579 10400 
1614 480 4187 19466 357 3570 593 8217 6580 
7024 9606 5001 5018 6004 7199 4018 5873 3427 
21278 5129 4303 3867 6678 6852 432 7047 6056 
5976 4221 1040 1557 6824 8730 470 1075 1175 
1992 5509 255 132 5363 445 2340 4787 516 
6270 8457 1864 21546 19703 703 7642 20265 458 
7436 3616 1766 10496 19487 16022 6393 10221 2357 
9266 594 2687 5373 3056 2710 3548 4035 7737 
2463 16248 17404 6176 3054 381 1383 11692 7775 
1539 8925 16059 13495 21228 2664 3999 2995 4784 
6155 6382 16379 10266 3038 3611 871 1985 5272 
111 11454 5922 12079 9219 18766 7362 7636 6701 
3016 6046 9504 11491 3764 115 4037 5890 7389 
1701 339 7580 15999 5067 12458 6488 16767 7075 
718 11943 9597 13763 21287 3293 4639 682 3267 
3583 4532 3623 12789 15413 19399 16102 6720 2792 
5374 5502 619 1566 15744 3201 20940 3789 6660 
100 335 6593 21526 717 4544 1147 18776 16389 
16114 6649 14607 3234 9827 1165 2363 2341 3802 
2825 21209 3683 2419 4553 4302 1484 9958 741 
496 3998 7196 11609 9130 1121 21519 21488 2531 
1296 4135 1371 4695 1019 2488 20204 6749 12633 
7616 2241 21940 597 9300 7325 17868 699 4933 
15629 6088 1585 13826 17065 17339 16707 3447 11482 
6220 3915 7365 4344 4390 2673 11698 11013 17703 
18929 12155 9252 13261 21822 8533 5790 280 1476 
5654 7055 7987 9940 1330 1138 6126 3490 6231 
1880 1989 5695 5050 5039 14332 13715 3800 14423 
2843 5466 5012 6733 6256 6161 10031 14673 15996 
11547 6272 766 1252 14634 4361 2103 3944 9987 
20382 3325 3676 15519 15787 21422 1416 4512 1310 
6010 6966 6232 802 10124 6020 7270 8014 9680 
13757 11270 1494 8239 16031 10782 10192 3953 11212 
2735 5439 5998 2313 2652 11493 19457 16804 14232 
2410 20135 15384 19311 1369 5935 20617 2618 2127 
3777 6156 16849 1214 16369 14037 18046 105 4063 
9557 5425 7438 5737 598 6181 294 11420 17544 
1893 7657 7752 3694 5768 5331 2135 3045 14068 
10460 7306 6907 20735 2556 7134 7079 6332 2817 
19531 2816 6002 11080 19317 6545 8505 6538 7114 
19232 5667 4972 5122 14500 12414 8787 3687 10914 
4604 6605 5643 764 5091 7 6184 1431 7487 
6529 874 2966 4560 6997 5146 8977 2097 5722 
813 1377 6327 2985 16536 6437 6149 4730 4365 
6104 113 512 3717 4111 787 7602 5537 6440 
2218 11553 5235 15070 5417 3597 3928 21196 2952 
2918 7384 11559 6595 4388 6931 4433 2347 5078 
6471 7453 1038 16958 7051 5472 17911 3432 244 
6725 557 4936 606 7668 2536 4661 17281 1340 
2632 6371 20537 5986 2240 5703 5344 2055 575 
2467 2415 1708 2125 7157 6498 3208 3100 3298 
6275 7747 2997 3701 9095 4656 792 18723 4039 
4591 396 19580 3122 168 495 15488 4970 5597 
5322 9052 3025 2881 18895 1049 5411 4110 626 
1122 3947 3029 18508 3516 14837 799 4691 4905 
479 5716 6162 8698 17528 13364 17021 21831 9705 
5041 2860 5087 20943 6828 4613 1013 6829 21717 
3863 11725 10243 20403 13373 21215 5019 2174 4393 
5901 4214 10864 5470 5163 19103 4974 14547 8935 
18717 3066 10666 1216 5047 2028 7038 3886 6146 
11726 2908 10818 3899 12433 2758 14472 18531 4545 
14379 2769 3411 20640 5572 2914 1251 16862 10766 
21815 8148 4181 7082 18038 21056 18262 4024 17026 
14650 4191 21804 7499 15146 617 16776 7018 17669 
20631 6758 12209 1784 10297 16412 3129 773 5699 
3524 6527 16545 7599 4504 11960 16490 5327 9703 
21320 10563 21341 12620 6040 11538 42 7375 4676 
2189 21197 9004 14904 17869 16855 7432 10705 21103 
21516 3099 5043 2728 7298 16237 16479 19192 20748 
14333 19443 20615 4025 9207 15156 853 10409 17393 
9620 17309 13841 11152 3284 825 4171 5448 21729 
3550 14149 19645 14762 9497 4568 8236 2296 2479 
13393 13542 6633 17952 7739 5030 6760 2699 22 
12517 19639 10843 15862 18490 20066 20791 15470 21961 
10010 138 4301 3216 3888 1069 3500 15095 18132 
13312 14504 9235 15278 13334 4541 10134 179 11752 
9574 14215 2589 8960 19895 7437 3792 6170 7728 
3667 1938 9332 9155 14059 12070 10672 6608 10203 
12129 14606 12953 15567 17951 7518 15808 3089 15798 
4889 7225 20031 6392 14734 4918 9310 20902 13857 
11086 8859 17507 21012 14015 21431 18587 3520 10610 
15237 413 3755 248 19840 19134 8285 17461 14482 
5007 11344 6024 20568 12501 19511 14529 18088 20767 
16568 8054 16644 21797 21244 4715 134 1103 107 
3156 524 1686 2755 14201 9542 16890 13497 14156 
5746 11636 15065 9012 9757 8914 8310 11247 11678 
17845 10551 7316 362 6015 3174 5193 634 672 
16135 20726 15813 13683 20937 18417 10046 13948 14440 
13734 2050 7744 12764 9051 3117 3538 4724 6420 
17378 17793 9749 17516 21130 10627 20744 257 2760 
6001 7743 1652 1972 5127 4942 3716 8121 540 
18758 1250 6731 3068 5822 21010 6069 21503 15322 
18579 11915 21794 3469 20083 11203 10524 15783 9064 
14220 10884 9126 21139 14056 3187 2458 5554 4471 
2604 4894 15152 8563 180 17897 17043 14160 9835 
7865 3492 633 5897 8223 2397 1191 1323 2909 
6266 3770 8065 3213 11239 3929 5084 18069 225 
4646 419 6876 10803 4318 13553 4217 3028 9903 
10544 12285 7940 20844 1515 8050 3918 19016 4886 
1795 6809 4752 2361 15333 12119 4921 11679 15796 
9122 16341 18357 4362 8931 72 3338 3773 5275 
5435 322 17020 4864 3843 16000 9394 18145 19349 
12667 6267 21400 8105 9968 16340 5844 19374 2197 
5898 3629 3686 16778 5782 8312 505 20606 12986 
18367 15919 8676 5476 8631 6559 284 3102 7347 
10924 14014 12021 17715 14580 9075 7017 9187 13983 
21958 548 9093 9966 18559 2742 3582 7782 4122 
17552 2380 2936 5648 919 12462 8678 13725 18408 
9213 16611 20961 3838 3715 7087 19701 15032 468 
19512 2126 15167 12838 10955 11982 19369 13810 21674 
9764 10837 5369 5128 1415 269 2667 4521 4446 
10628 1424 3575 8220 14436 12635 8746 8799 1728 
6164 192 4333 6926 10268 14281 551 15717 4485 
20128 12539 10725 14653 1715 4209 2059 13539 1162 
4173 20530 7009 13800 14432 13380 511 5948 346 
2468 2924 2503 14123 1771 19121 4920 18217 20766 
604 1679 16754 4067 2449 194 3876 1809 2651 
11754 20733 1481 4201 1564 13838 4822 3546 6423 
7275 984 7446 21199 18781 2661 2781 10099 11832 
18526 15967 18487 1118 1123 6837 4475 2251 17536 
11856 7916 17882 2436 18175 5029 17942 14287 425 
2027 6902 5416 17672 3643 16506 11487 21346 10307 
11729 8311 14022 20380 13298 11570 11162 7709 2130 
6391 342 865 2888 4379 20813 4194 3793 18643 
16310 5679 572 11622 11506 5711 1553 7489 1510 
6079 17839 21355 8873 10917 13475 2250 19945 17197 
2343 9224 8907 18435 5867 19332 1497 6038 2921 
1826 1857 6798 8073 19359 12571 5957 3562 17380 
364 19943 20546 7755 4086 2622 6897 15038 15627 
20503 11864 12206 21653 15161 7809 19413 21246 10429 
4576 3318 1879 1675 2058 20249 3425 5604 21471 
7676 7084 5219 3362 8942 1429 2124 3015 2091 
14578 20783 16791 9215 21155 13997 20887 14655 11757 
5869 18662 2498 3487 1179 68 7133 12233 18453 
14678 20063 15420 8108 15606 17857 10465 6928 19270 
17995 7232 7594 6648 14084 151 12338 3779 17459 
1453 2082 16230 4369 3563 5549 2066 161 2164 
2054 1263 4208 1469 4735 17231 12272 12907 20998 
7258 9480 10058 2696 18642 8021 19078 2945 15450 
14315 9181 8524 3889 18246 2701 19061 11071 8000 
20510 1298 9034 21996 12630 13643 341 12416 7613 
864 7354 7621 4052 1653 9950 4096 20678 11331 
16183 21094 12075 14321 15975 9098 14481 7098 13533 
5785 5252 6729 20547 6955 5653 9039 8173 21864 
19977 217 21672 11524 4865 2846 16722 4533 1554 
3247 2923 16413 4678 7408 14750 13241 6709 3671 
11712 1656 4981 2391 2405 9893 4226 20593 19020 
8955 12631 18491 5042 10591 14092 16301 12537 14179 
5580 15800 12159 13167 5187 17566 5104 4312 3646 
6197 989 4237 7568 8804 16484 15302 5034 7141 
2576 6510 1516 8301 6860 508 13461 12480 2806 
20339 19959 7546 7260 3476 671 55 2588 5511 
18194 8142 5239 5108 9770 14751 5724 6952 14498 
13168 18327 2599 1894 3195 12957 9836 13888 1786 
8633 18791 7516 1193 5341 1267 10321 6820 5893 
4514 6747 1241 16663 14353 1363 20498 19082 1755 
3361 1863 1337 4238 10693 16994 10094 1657 16993 
20679 4763 1297 15844 379 3306 4255 6862 2447 
869 6722 16079 11691 5557 17200 13421 16966 17945 
10634 11798 3184 8765 1382 4937 3274 5967 6971 
574 14688 21443 12906 11220 17373 13378 8867 13279 
412 2926 5267 7014 19887 2669 3286 1811 20368 
18086 14801 10386 11126 5345 12776 21284 17614 13468 
17971 1899 19007 16161 822 19815 9286 19367 11861 
1063 14828 12853 4100 386 13211 345 16526 9391 
9687 10497 8355 9560 11339 9005 7985 1341 9260 
14715 21401 355 15637 7160 2204 15129 15573 11674 
9837 20362 11794 17656 18218 17537 16092 11824 16160 
13159 1472 14079 19261 1672 14455 5038 1385 3658 
6743 5999 14635 5053 21657 5933 14874 10090 9373 
6479 1769 5467 3104 5326 5372 2812 4409 3772 
7187 8209 4439 6666 8881 3310 363 15610 7396 
1986 17922 4248 19979 10602 10886 11384 14247 12126 
3989 7012 6445 20684 3970 6023 16165 7473 17159 
10005 4908 86 6536 7698 1360 3566 3941 3317 
2580 2233 1634 7528 6324 6041 5256 3507 3512 
5366 1884 3142 2566 5593 7933 7474 2335 745 
4725 12424 10535 653 5343 4013 3101 1722 3875 
641 4421 5447 3063 6384 7741 1278 6261 877 
5225 4277 1145 2064 1915 5492 7632 6755 1411 
1110 6227 4460 6285 12049 925 4396 6043 1016 
1584 3884 3689 1883 1466 6316 6734 7201 11213 
7405 13400 2972 2423 7672 7508 541 69 3560 
3324 4740 5755 3070 3823 4603 2737 2407 4819 
7390 9970 15090 15489 7158 13414 5137 6939 1222 
6063 19853 6269 17338 20542 19010 12697 18764 8235 
4364 10777 5437 3478 17135 1763 5694 7040 3706 
21440 12054 8162 7812 20845 12029 5827 7100 428 
16812 13455 1743 5143 12120 17283 12614 6686 15357 
11254 13439 19794 16116 13021 6918 15206 707 5028 
12863 2534 6474 14783 10254 5130 19579 10619 1822 
16876 9171 10851 12488 19331 10053 18816 10073 2117 
513 2590 12012 59 4699 2272 10968 15182 18442 
14710 13645 10054 16327 10840 11228 14110 21539 17272 
17177 8777 7680 4726 6780 1084 6906 7314 1607 
14782 15275 19609 3993 19264 19660 16721 16984 17350 
14348 12019 8713 18058 19009 19600 10994 20142 11885 
4095 1667 1596 624 5158 21490 11768 16935 10343 
14448 20818 17037 12731 13050 8864 7862 9118 17935 
4323 17850 14008 6779 14133 17195 16051 4304 9247 
11438 20416 5473 15364 3933 21626 7924 15608 15266 
6851 14051 1036 8589 14274 16884 15526 9479 11833 
17114 21861 13123 9761 8888 17004 1590 3272 3371 
5420 3165 2481 7478 11770 15686 15628 17456 4795 
16450 16204 16974 13526 8040 19997 20062 18053 12809 
5518 17214 8268 16425 20472 15906 16370 21408 14866 
8718 16532 3705 2689 2691 5138 3912 16910 2703 
15507 5196 9684 19272 18456 8860 21397 21448 19101 
8985 7817 9760 17792 13118 13648 16186 12483 13780 
8716 16171 7736 3354 6421 1148 1768 5501 19750 
11557 10374 17521 21065 20609 12507 8591 13385 8225 
1561 8687 17601 16085 7956 11929 20966 15585 9699 
16805 12459 2172 3934 5232 5271 3718 9116 15920 
8763 2178 14494 12520 6075 11902 11700 13513 14731 
13273 12886 19733 7920 16824 13580 3723 7211 17816 
15286 10561 13594 3059 4079 3913 6968 5985 18158 
2068 15021 14808 10659 21414 12406 19335 13851 15027 
13932 8792 16680 12442 17919 14766 18171 20585 12740 
15784 8228 16987 8597 12457 5254 14971 8989 3177 
1702 11602 10371 11322 6099 12745 16710 13076 13737 
16460 12464 18074 8769 20106 12137 18647 8487 1231 
14910 21098 18008 17293 17367 6948 560 7667 6632 
878 8755 17636 20037 4940 11002 18271 15205 8056 
14097 11105 18452 9675 14445 12236 18116 12495 20260 
14044 10855 14006 18495 20704 9502 21049 2513 3665 
21575 3557 5481 564 21727 11911 4508 9385 19820 
9719 17981 13089 11647 18263 15273 11686 9200 8974 
17650 10088 16293 16616 2507 18704 19449 18307 9139 
16037 5178 775 3594 4203 15993 17266 6097 14119 
18243 12301 11099 991 11520 5359 17042 15246 1944 
18622 16496 12617 16241 10582 21115 20449 16334 12952 
17501 2209 2913 4112 1696 4805 19229 6344 20601 
19198 19758 13552 21968 20843 16461 21334 12284 14727 
17447 9045 20300 4236 9978 4926 10920 11957 12695 
20439 13389 10223 8106 9400 16658 4694 266 15650 
9621 15684 15026 10927 1720 13972 21668 21671 12778 
17595 13325 17257 6049 17047 966 15368 21662 2161 
11897 2904 18274 1273 5851 3595 18443 19980 19092 
20578 19775 9110 21476 17287 16662 21479 19452 12622 
18626 14214 13391 12436 1965 16608 15198 20324 13299 
11242 18295 19267 4852 15256 14495 102 6757 10537 
20600 7505 947 13146 20989 2789 14695 15079 20154 
17068 19155 18820 20960 21683 8667 12605 20194 19964 