# vtk DataFile Version 4.2
Generated by LIGGGHTS
ASCII
DATASET POLYDATA
POINTS 10000 float
-0.00427213 0.000899165 -0.0408737 -0.00248623 0.00101646 -0.0410304 -0.000679798 0.000897825 -0.0410982 
0.0011182 0.000896035 -0.0410963 -0.00350478 0.00252525 -0.0409497 -0.000970371 0.00281285 -0.0410915 
0.00186237 0.00258464 -0.0410577 -0.00516944 0.00323189 -0.0407753 -0.0024314 0.00396792 -0.0410295 
-0.00667509 0.0043044 -0.040554 -0.00411978 0.00468942 -0.040896 1.70168e-06 0.00452687 -0.0411087 
0.00263797 0.0042089 -0.0410197 -0.00569838 0.00580545 -0.0407126 -0.0022396 0.00575936 -0.0410489 
-0.000265048 0.00630403 -0.0411016 0.00145891 0.00557351 -0.0410821 -0.00682345 0.0071936 -0.0405377 
-0.00403119 0.0065022 -0.0409021 -0.00255563 0.00752692 -0.0410219 -0.00444341 0.00825931 -0.0408641 
-0.000844798 0.00810281 -0.0410903 0.00112547 0.00858964 -0.0410906 -0.00341363 0.00972024 -0.0409709 
-0.000153268 0.00985243 -0.0410971 0.00245763 0.00979494 -0.0410342 -0.00241285 0.0112067 -0.041034 
0.00135945 0.0112092 -0.0410819 -0.0060013 0.0117044 -0.0406637 -0.0035037 0.0126535 -0.0409518 
-0.00116173 0.0126468 -0.0410858 0.0023043 0.0135503 -0.0410433 -0.00532548 0.0136632 -0.0407528 
-0.000528889 0.0145715 -0.0410978 -0.00381164 0.014875 -0.0409267 -0.00174129 0.0158985 -0.0410709 
0.00123185 0.0150104 -0.0410806 0.00279492 0.0159206 -0.0410039 -0.00411706 0.0166465 -0.0408942 
1.33638e-06 0.0163254 -0.0411027 0.00155328 0.0172253 -0.0410756 -0.00574891 0.0173955 -0.040702 
-0.00241811 0.0175895 -0.0410366 -0.00016949 0.0181373 -0.0410992 -0.0052923 0.0191577 -0.0407571 
-0.00350649 0.0190498 -0.0409497 -0.00162625 0.0192021 -0.0410752 0.00128568 0.0192009 -0.0410789 
0.00313628 0.0192056 -0.0409856 -0.00980086 0.000913723 -0.0399172 -0.00773127 0.000898814 -0.0403761 
-0.00594707 0.0010669 -0.0402455 0.0025329 0.00089182 -0.0400002 0.00407841 0.00089464 -0.0409036 
0.00575537 0.00149626 -0.0406957 0.00742863 0.000898724 -0.040433 -0.0110831 0.0024405 -0.0395847 
-0.00872632 0.00237835 -0.0401698 -0.00696102 0.00252963 -0.0405068 -0.00213044 0.00248852 -0.0397614 
0.000402544 0.00218345 -0.0400869 0.00360021 0.00242188 -0.0400959 0.00847704 0.00237176 -0.0402187 
-0.00981029 0.003784 -0.0399161 -0.00342439 0.0037145 -0.039554 0.00130294 0.00395915 -0.0398516 
0.00495948 0.00338696 -0.0407989 0.00679885 0.00294629 -0.0405129 -0.0122561 0.00412805 -0.0392293 
-0.00813664 0.00429757 -0.039508 -0.00523215 0.00450605 -0.0394976 0.0056221 0.00505835 -0.0407155 
0.00781079 0.00442104 -0.0403528 -0.0119792 0.00593154 -0.0393229 -0.00978185 0.00557733 -0.03992 
-0.00805632 0.00591088 -0.0402959 -0.00321144 0.0054942 -0.0395717 0.0038907 0.00549116 -0.0409159 
0.00724519 0.00625822 -0.0404627 0.00899661 0.00643718 -0.0401072 -0.00959947 0.00736259 -0.0399669 
-0.00521716 0.00717991 -0.0396707 0.00110103 0.00706317 -0.0401459 0.00334434 0.00699756 -0.0401037 
0.00499908 0.00690606 -0.0408026 -0.0112891 0.00781954 -0.0395184 -0.00802254 0.00856472 -0.0403087 
-0.00601864 0.00873119 -0.0401003 -0.00312565 0.00854055 -0.0396544 0.00238811 0.00849013 -0.0398115 
0.0037992 0.00854032 -0.040925 0.00648926 0.00848005 -0.040594 0.00820156 0.00804033 -0.0402708 
-0.0100177 0.00910491 -0.0398657 -0.00174512 0.00951383 -0.0403328 0.00113747 0.00993792 -0.0398232 
0.00498266 0.00990744 -0.0407979 0.0077838 0.00978725 -0.0403556 -0.0124618 0.0110069 -0.0391687 
-0.0105339 0.0108725 -0.039731 -0.0086839 0.0103612 -0.0396965 -0.00709868 0.0101085 -0.0404911 
-0.00504739 0.0102056 -0.0404168 0.00363811 0.0111451 -0.0409421 -0.00878767 0.0120955 -0.0401525 
-0.00723539 0.0115022 -0.039372 -0.00451355 0.0118943 -0.0396716 -0.000159105 0.0113814 -0.0401517 
0.00214312 0.0122374 -0.0398403 0.00523757 0.0116261 -0.0402816 0.0070068 0.0114011 -0.0405001 
0.00879157 0.0113396 -0.0401592 -0.0114687 0.0125131 -0.0394757 -0.00717918 0.0130404 -0.0404763 
0.000648233 0.0134346 -0.0403523 0.0038273 0.0128467 -0.0403941 0.0060428 0.0131952 -0.040653 
0.0080194 0.0129551 -0.0403207 -0.0108626 0.0142001 -0.0396376 -0.00879367 0.013909 -0.0401502 
-0.00663822 0.0144326 -0.0394843 -0.00220986 0.0140972 -0.0406644 0.0031943 0.0145548 -0.039863 
0.00468391 0.0143633 -0.040838 -0.0125199 0.0150755 -0.0391484 -0.0110675 0.0160368 -0.0395856 
-0.00867025 0.0157018 -0.0401803 -0.00694553 0.0160691 -0.0405118 -0.0052872 0.015502 -0.040115 
0.00633938 0.0150251 -0.0406119 0.00866658 0.0148904 -0.0401757 -0.00262709 0.0161772 -0.0395449 
0.00562912 0.0166674 -0.040719 0.00753368 0.0163877 -0.0404085 -0.0122794 0.0173283 -0.0392283 
-0.0104718 0.0177891 -0.039748 -0.00837261 0.0174829 -0.0402473 -0.00348988 0.0177423 -0.0396137 
-0.00113792 0.0173566 -0.0397998 0.00295397 0.0176711 -0.040042 0.00449821 0.0180468 -0.0408605 
0.00744034 0.0181902 -0.0404297 -0.0119912 0.0191415 -0.0393201 -0.00883761 0.0192098 -0.0401487 
-0.00707915 0.0190546 -0.040489 -0.000511432 0.0191745 -0.0396688 -0.0152358 0.00125742 -0.0381795 
-0.0128279 0.000902019 -0.0390457 -0.0110702 0.000904097 -0.0386476 -0.00844504 0.000891668 -0.0387378 
-0.00666323 0.000896324 -0.0385477 -0.0048782 0.000897105 -0.0387341 -0.0032237 0.0011061 -0.0394001 
-0.00137541 0.00089326 -0.0394456 0.00103201 0.000897102 -0.039002 0.0046067 0.000899416 -0.0391845 
0.00639625 0.000893712 -0.0389791 0.00985924 0.00127006 -0.0399071 0.0115529 0.000897019 -0.0394454 
-0.0163911 0.00254702 -0.0377012 -0.0138773 0.00231973 -0.0386881 -0.0120814 0.00234036 -0.0381045 
-0.00958952 0.0022639 -0.0386053 -0.00758298 0.00272641 -0.0388294 -0.00479987 0.00264948 -0.0391173 
-0.000542897 0.00221765 -0.0385678 0.00196879 0.00241298 -0.0392414 0.00559572 0.00262997 -0.0392148 
0.0118236 0.00267123 -0.0393633 -0.0150553 0.00361928 -0.0382468 -0.010725 0.0037171 -0.0383768 
-0.00188336 0.00377895 -0.0385389 -0.000452482 0.00368084 -0.0396033 0.00307364 0.00393365 -0.0392889 
0.0086978 0.00360133 -0.0389126 0.0101327 0.00304526 -0.0398369 -0.00667507 0.00423274 -0.0384615 
0.00451676 0.00501843 -0.0392965 0.00958342 0.00474756 -0.0399712 0.0126673 0.00423664 -0.0391033 
-0.0147159 0.00538142 -0.0383744 -0.0129688 0.00535794 -0.0379442 -0.0105613 0.00550195 -0.0383045 
-0.00867355 0.00569334 -0.0385076 -0.00630114 0.00589132 -0.039029 -0.00451833 0.00604605 -0.0384792 
-0.0013783 0.00521788 -0.039575 0.000395078 0.00548969 -0.0396432 0.00234691 0.00555698 -0.0395216 
0.0062423 0.00561693 -0.0391252 0.00810141 0.00544511 -0.0389067 0.0117311 0.00598045 -0.0393975 
-0.0135186 0.00683619 -0.0388139 -0.0092321 0.00740058 -0.0382089 -0.00763087 0.00709296 -0.0389448 
-0.00271836 0.00702633 -0.0387816 -0.000866212 0.00694015 -0.0395332 0.00213503 0.0071267 -0.0386786 
0.00489963 0.00680266 -0.03902 0.00663453 0.00736809 -0.0391904 0.0105175 0.00731214 -0.0397325 
-0.0162098 0.00831627 -0.0377767 -0.0145455 0.00826772 -0.0384462 -0.0128796 0.00860506 -0.0390305 
-0.00617187 0.00797541 -0.0383832 -0.00151489 0.008478 -0.0388731 0.000119115 0.00847378 -0.0396135 
0.00518502 0.00853413 -0.0393716 0.0120581 0.00812097 -0.0392933 -0.015701 0.0100267 -0.0379842 
-0.01139 0.00958731 -0.0388164 -0.00915376 0.00932401 -0.0383099 -0.00698463 0.0095218 -0.0387984 
-0.00470881 0.00888259 -0.038887 -0.000519561 0.0100422 -0.0390066 0.00366241 0.00973943 -0.0395888 
0.00685662 0.00913249 -0.0389607 0.0097343 0.00891854 -0.0399335 0.0112373 0.00982177 -0.0395339 
-0.0140644 0.0104059 -0.0386251 -0.00946855 0.0112049 -0.0383234 -0.00561633 0.0106845 -0.0387814 
-0.00356747 0.0104046 -0.0393265 0.00539702 0.0102898 -0.0390915 0.00763284 0.010893 -0.0388759 
-0.0150828 0.011908 -0.0382323 -0.00177133 0.0114111 -0.0393722 0.000990164 0.0113847 -0.0387692 
0.0037853 0.0114924 -0.0391851 0.0105111 0.0116416 -0.0397405 0.0122118 0.011343 -0.0392455 
-0.0156071 0.0136194 -0.0380268 -0.013293 0.0125767 -0.0388939 -0.00962888 0.0129947 -0.0388465 
-0.00783954 0.0131683 -0.0388215 -0.00598588 0.0127889 -0.0391545 -0.00439734 0.0132703 -0.0384603 
-0.00282945 0.0130088 -0.0393243 -0.000742491 0.0128806 -0.0393545 0.00316487 0.0131813 -0.0387089 
0.0050527 0.0128517 -0.038981 0.00682651 0.0124826 -0.0390767 0.00974623 0.0132504 -0.0399312 
0.0114836 0.0131482 -0.0394632 -0.0140738 0.014375 -0.038587 -0.00352006 0.0146659 -0.0391691 
-7.75e-05 0.0143115 -0.0385029 0.00154396 0.0146666 -0.0391744 0.00532101 0.0146173 -0.0391618 
0.00724775 0.0142092 -0.0392992 0.0106892 0.0147582 -0.039692 -0.0152994 0.0156126 -0.0381505 
-0.00967524 0.0152434 -0.0387735 -0.00797559 0.0148792 -0.0383171 -0.00649021 0.0160456 -0.0387157 
-0.00513565 0.0149069 -0.0384262 -0.00187796 0.014936 -0.0384968 -0.000623576 0.015652 -0.0395619 
0.00429035 0.0159634 -0.0397569 0.00661043 0.0158517 -0.0389691 0.0123534 0.0152278 -0.0391994 
-0.0138296 0.0164824 -0.0387065 -0.0106164 0.0170043 -0.0381437 -0.00819335 0.0166143 -0.0386933 
-0.00506162 0.0170712 -0.0390769 0.000798084 0.0161545 -0.0384955 0.00258173 0.0161257 -0.0392169 
0.00977458 0.0162929 -0.0399267 -0.0152697 0.0174078 -0.0381607 -0.00684664 0.0176967 -0.0393175 
-0.00222496 0.0174731 -0.0383673 0.000630911 0.0175794 -0.0395783 0.00433413 0.0175336 -0.0388974 
0.00617221 0.0176046 -0.0392877 0.00975099 0.0177789 -0.0389085 0.0114373 0.0175737 -0.0394843 
-0.0152308 0.019203 -0.0381752 -0.0135825 0.0184887 -0.0387895 -0.00960155 0.0190173 -0.0385486 
-0.00765929 0.0192063 -0.038797 -0.00588199 0.0191907 -0.0390498 -0.00410506 0.0192087 -0.0387989 
-0.00244815 0.0192014 -0.0394848 0.00225622 0.0192062 -0.0394274 0.0043223 0.0192129 -0.0395192 
0.0069417 0.0192079 -0.0390432 0.00865405 0.0192027 -0.0395786 0.0104361 0.0192027 -0.0397602 
0.0121606 0.0192036 -0.0392644 -0.017054 0.000902271 -0.037394 -0.013676 0.000896601 -0.0373704 
-0.0119086 0.000894061 -0.0370598 -0.00968621 0.00089447 -0.0374454 -0.00571887 0.00090566 -0.0370214 
-0.00393308 0.000896874 -0.0372028 -0.00227705 0.000896684 -0.0378931 -0.000191732 0.000897921 -0.0374011 
[...]
POINT_DATA 10000
FIELD FieldData 7
id 1 10000 int
2748 2893 1284 9470 8743 4041 6612 1775 2870 
6642 1963 2140 2671 5876 2409 617 3849 3790 
9250 935 3734 4698 4246 1271 487 3181 1520 
5441 7829 807 4188 4842 3158 1885 7066 3383 
5554 4027 8705 8102 1744 3614 7531 206 8949 
4631 1891 9634 2769 483 1460 1647 1471 9724 
280 2166 7238 1324 6464 4883 7007 4018 9944 
3647 3289 844 9464 4848 4405 558 1125 9973 
4177 4480 4373 3147 8161 948 5854 926 6347 
3244 2986 6288 5198 3095 980 2581 1871 7900 
6633 4330 1676 2631 7108 776 3231 7391 7872 
7026 7960 4904 3537 9050 2697 2593 6845 968 
756 5268 3355 3709 6738 431 3631 1933 8069 
5505 4066 2533 4644 1066 1396 3717 2189 861 
2534 2435 8479 3716 8044 3940 1115 259 3342 
4144 4082 2101 6569 1507 8162 1583 5444 6887 
4512 5692 5813 2418 163 9398 1389 716 5990 
6210 4141 7273 6350 4040 4529 4116 571 7755 
2586 78 1617 3983 3939 3720 480 7117 1544 
6824 3545 5385 7948 8818 6241 6616 323 5326 
1868 8722 4299 496 1731 9632 4721 3236 1538 
5440 145 9212 3334 4287 9039 2319 3616 4910 
5211 8347 2303 3856 3960 1001 3920 2736 4407 
1860 7302 4525 9157 1790 5094 507 2628 6376 
7933 683 3191 1301 2395 1114 3275 1380 2739 
1123 5278 4509 6678 1823 6801 1337 7810 3394 
6863 2379 117 1621 3168 2982 3148 4019 4089 
4222 1517 4432 373 2742 7019 9279 1927 6646 
5939 5418 1064 1594 372 3970 3815 5387 695 
2952 3044 4665 4130 7691 8331 8767 1351 498 
8463 1190 2587 2158 9076 3496 2818 305 7998 
5071 253 4031 2947 7 6910 9441 1218 7820 
1939 204 763 2098 6157 4964 8762 9225 6475 
615 8890 5042 6662 4369 1548 4943 1989 3473 
4036 8297 1907 7277 3671 7093 8221 8117 5438 
4805 2240 2500 7121 153 3045 449 6509 3311 
9189 7138 6275 8922 3052 4282 2245 4359 6572 
8945 1245 6473 4591 3100 5291 2011 5175 9180 
6202 3358 2654 9567 4058 5574 931 3652 6378 
1805 2129 3485 3711 4777 5248 7568 189 8301 
916 7079 8699 2023 5221 9876 6915 7976 9748 
1022 4099 1201 2496 9742 7395 1261 9516 5588 
6008 9354 3776 9643 2943 3641 4963 8419 3629 
243 8708 4794 294 3663 3076 4897 7760 2786 
6937 2155 1547 7860 4575 3234 1848 981 2150 
5327 9397 9819 1020 7148 6292 7171 3058 7468 
4827 1185 1075 2767 7191 2555 1469 8600 3348 
6014 8220 7871 2693 5400 847 1609 1539 988 
6177 527 415 2829 5518 8582 9524 1168 9780 
5088 5013 2611 9407 7789 2876 9119 181 7220 
6510 8926 7555 8303 7195 4810 3500 2972 7211 
715 8095 7627 8800 1711 6162 4157 4700 7884 
2851 9249 4034 2816 1077 2259 2991 3165 4985 
3997 9503 1535 6432 7174 4697 993 2412 4820 
1749 3084 504 4521 1667 6006 6611 6086 7710 
1366 1470 6723 3682 6320 6658 7397 9563 4775 
7240 6461 5844 7239 8726 7409 6150 13 2794 
4391 551 1010 4797 7958 7536 7232 3926 9035 
9540 3187 1177 2445 1121 767 9867 246 2376 
1046 5521 7072 9159 2284 292 855 2737 6483 
8972 5942 2571 3240 9993 4460 6211 4656 384 
9195 9587 3809 881 1759 7571 9987 9958 9350 
3265 2607 7218 80 9657 4425 9481 367 1283 
2895 5220 5239 2428 5472 2676 7260 4566 170 
5934 6062 8043 5485 9771 131 6390 6389 5031 
1495 9508 399 5132 9933 783 255 7706 252 
2114 3491 9267 3440 3260 1980 1857 4039 2810 
6965 7840 2231 7404 3108 2659 2566 1098 3907 
4461 5736 9186 8063 3412 6961 9023 4859 9233 
3630 9120 2536 1781 6969 8256 4494 6538 6075 
1461 3115 258 8330 3979 7341 8338 8540 1424 
4693 8684 6686 9281 4765 7658 1211 6634 7132 
8114 7269 5709 9506 7674 4275 6916 686 4839 
2793 8332 6020 8885 6103 9752 1059 6269 9874 
8029 247 9435 653 2862 2152 119 2552 328 
9793 6721 6982 6049 6779 5699 2994 7827 8814 
4560 843 7287 9927 2108 4723 68 2281 535 
5552 5135 6279 3106 1804 1657 3799 3835 8608 
8448 8867 3327 3821 9228 2326 8624 854 3235 
9897 2184 4651 3972 2635 7744 7757 3341 3746 
706 66 9784 8788 4122 9590 9818 7670 7154 
4160 7625 5295 6476 2951 5812 6766 778 6999 
7048 8440 3942 8400 4444 3633 9468 6753 4353 
6870 9111 5123 8457 1454 4787 402 4522 7295 
4422 9940 1659 584 2815 6 2392 5177 2499 
410 2692 5755 7636 1400 4740 1571 851 3483 
919 434 5496 8745 9800 5663 7021 8226 8247 
9892 1288 4950 9808 6885 8475 8940 4966 7994 
240 5188 3968 1391 9385 2061 2637 215 75 
5111 9761 1052 4320 8398 4402 7009 9314 845 
826 3627 3703 7526 9278 1656 4492 7734 6934 
7910 5210 8283 869 8689 5449 3672 6741 2886 
4955 6740 5131 3636 7320 8127 2915 2433 1925 
8673 9781 2855 2211 3408 5772 5049 9762 6672 
217 2044 224 6625 7308 3666 9451 5549 234 
6959 2775 9660 8318 7173 1693 4997 8820 8547 
6578 8375 5335 8191 7236 7051 3810 1329 3901 
8931 7556 7272 2079 3300 1429 3806 744 4077 
1103 3062 6433 3728 1149 150 8969 2277 5695 
2008 953 6276 8323 6823 1346 5405 2306 8834 
6083 6158 8593 8492 4134 5114 7628 9215 5309 
2942 6342 9298 3665 5077 6106 332 9699 7548 
6938 8796 9628 3878 4220 9371 7064 2532 5894 
6070 9637 7868 4649 1080 9102 9712 9038 3755 
3349 8748 1745 8086 5424 889 693 6737 6554 
6087 4142 286 1319 3524 1003 5212 9263 5263 
4445 8442 9937 2914 4241 897 3969 3589 2402 
3403 1954 6930 2214 8459 8756 4786 8953 8049 
4000 1251 1917 289 1904 4838 8445 5267 6353 
9098 5060 6595 3441 6674 9113 397 5626 9477 
4457 1111 1071 842 3261 8073 3208 249 7126 
6104 8597 8989 9566 2997 8295 2368 2049 1793 
4017 1236 8023 1410 886 6123 3436 2603 320 
1537 1699 8062 802 1290 9408 2258 967 2436 
9653 9802 9984 1483 7576 9720 144 8118 356 
1721 9018 3210 1040 4115 1102 5995 6809 1510 
6420 2058 1922 315 5007 7219 2119 9682 7912 
2959 8761 4007 6878 5302 517 8534 4449 2966 
2859 1015 125 2627 3864 3185 3119 5155 1250 
2551 4352 8947 2900 7922 9559 6198 9333 4332 
2890 2898 5276 8510 1584 6772 3751 2623 5359 
6874 579 1957 9832 8996 2569 296 3352 8381 
2868 6763 7866 8126 9890 1951 1574 4527 2053 
1279 8738 6728 362 6610 7803 422 453 4166 
6888 6632 2538 2424 6637 2845 9332 128 939 
3362 6114 8925 2107 3021 7814 3655 977 1578 
9924 636 9638 901 7393 7892 4713 9974 7935 
818 8082 9601 665 8587 2361 2315 9092 4333 
9888 6010 5261 723 9896 1343 5618 858 3094 
8215 822 6596 7022 7469 6248 4454 5616 9265 
8711 4503 4283 423 8393 9367 5415 3038 2632 
6566 3578 6247 7667 1616 3515 5503 7675 9899 
7888 8166 4679 1130 4784 3476 3150 3908 94 
927 2283 959 1061 3959 1054 3268 2335 2159 
5828 9821 3928 7978 267 7438 1146 4182 3921 
3635 1280 1516 8434 3004 481 8959 9636 9801 
1379 4557 1504 4110 784 3768 2434 3613 6236 
1698 1425 8134 3392 4611 3518 7862 6790 1182 
9619 722 6907 5466 3409 5808 828 8679 1777 
6589 9373 4603 7500 3065 4028 6710 6923 6854 
374 5737 465 115 8240 3200 5619 4584 703 
1191 166 8438 2250 9118 5231 7954 555 4376 
9972 2309 5623 9490 8084 420 3892 297 9656 
9093 8145 4781 6693 6652 6649 4097 9338 3221 
2602 9026 7029 5089 8305 6720 3951 3055 933 
335 257 2871 7484 9305 8736 7172 2173 5607 
4548 8666 4854 1606 1327 1988 8476 3242 4684 
113 4972 7704 368 2511 5010 4511 5612 9068 
1785 8533 1629 5101 7574 8619 7876 680 9697 
3336 6986 5797 7352 1686 595 5379 6068 4872 
6199 4782 1047 2850 9353 6575 9842 5199 3606 
7520 1984 1763 3741 1431 1199 5930 4091 9148 
7997 9833 7413 8501 4682 4318 2930 910 7530 
1669 2545 1786 8531 5969 5897 9500 7063 6345 
7694 5700 2329 4925 1916 3048 750 1002 198 
7762 9176 2899 5927 8489 8520 9104 5453 3830 
2690 2220 5967 6415 1792 9437 6580 5742 8288 
8490 4033 7111 8733 2265 4553 4178 2071 6272 
7137 7901 9967 2239 7560 3583 442 5714 2791 
492 6883 3605 33 3193 2162 5425 8314 806 
7538 5713 8939 9654 9122 1926 7082 377 879 
3075 4583 9770 147 932 9469 4087 9589 9471 
4568 7599 1522 2422 8430 1151 729 4204 37 
4674 3576 8527 3322 4577 2449 5519 64 8880 
6492 1239 3140 8371 5750 6167 8277 3017 4224 
6949 3274 1900 351 343 5760 5676 4710 4831 
2181 5192 3658 1390 6446 6911 5136 6282 3393 
5270 7964 3099 2249 9487 6591 5360 5794 3016 
2674 388 4549 5568 3702 6698 3824 6402 9165 
5526 8355 2154 6988 5572 9866 4206 4415 6120 
5281 454 132 9573 594 5249 6071 5393 3590 
9043 3514 9052 6160 6258 650 6604 1269 2330 
4779 4335 9379 9450 2544 5541 7612 3679 3241 
6539 8858 4316 7424 158 6061 2598 8951 7222 
5150 7811 3262 9816 1289 8637 9852 4600 3984 
2822 4059 9479 6768 2161 4877 6465 4564 6484 
169 7931 9858 4952 1172 9537 4899 6528 4770 
4221 451 6089 1382 2761 2568 3141 210 4517 
2472 2559 6101 9773 7515 7018 7278 3343 2805 
2971 5250 4555 6708 1556 5321 2113 8281 130 
306 424 3656 1004 726 4625 892 2803 3598 
90 9319 5822 7854 3602 298 3216 5627 6338 
6501 8034 8507 9264 143 8789 3154 1722 2584 
5821 9462 1624 6305 3376 9053 7934 4478 261 
6287 3037 8408 3988 8999 4463 9078 9753 5431 
9449 7756 437 3882 9389 7621 5647 9792 4187 
4274 2465 2857 1514 2657 2156 8903 7207 609 
2526 951 7244 1658 3888 9848 1875 4233 1223 
9154 5603 8428 6893 7583 4652 8391 157 5401 
4452 9062 8018 2489 2663 3949 2554 4456 3924 
339 2836 2800 9414 8674 5855 3644 8913 4209 
426 1757 2054 1919 2608 1335 5630 1013 127 
79 3134 2741 2826 3800 8560 8976 1774 1420 
3486 3780 1083 2120 3547 3014 2811 4479 4319 
3286 6593 3836 909 7770 8167 8909 9777 1447 
3467 5674 4845 2225 5138 8828 8203 5904 6552 
9081 9971 2453 5925 4293 9941 3252 9059 7833 
8021 8491 7284 4967 4167 1181 7713 7134 86 
6858 6548 5644 1119 5858 2387 8562 6822 6832 
340 3903 2203 7653 7893 860 2253 4048 1334 
8618 3538 6119 2486 5422 5776 5108 96 1444 
3591 9455 3971 7190 8784 7614 2711 5141 4164 
7528 5528 7714 6886 1732 8272 6130 146 9296 
2838 6835 4768 1481 6584 2304 4535 1276 1116 
6715 3143 6137 4879 2383 7156 7261 7292 7069 
835 3478 2146 7508 2020 6680 2141 7373 4024 
1654 9692 8458 7564 581 4363 4981 8494 3643 
6386 9703 9214 7336 9835 3079 4264 1208 7321 
583 5702 2752 2771 7552 1277 3557 6667 3624 
5703 1414 4755 2792 5045 8523 606 171 2542 
36 9364 9048 4616 798 3276 5591 6729 99 
4184 4331 4961 1536 6762 7914 769 4081 2658 
6639 903 2625 533 1225 4265 5299 5176 1087 
1197 5316 233 7867 9617 1417 2691 1803 9571 
6082 9980 6127 6472 9060 7447 9077 9917 692 
1209 8273 657 8207 7512 2700 6425 1632 7961 
3315 610 7605 7784 9735 2294 9820 4866 8320 
3019 4247 3146 2758 9242 4903 5744 2385 1107 
1613 6834 5989 6140 8146 2872 833 8447 7788 
1313 7697 6794 3909 291 7661 1297 3171 8513 
4295 1231 5656 943 2339 9565 2756 5416 632 
3592 1175 2630 2291 8509 275 24 1355 4830 
311 9704 2068 6839 5600 3111 8446 1497 7992 
1543 9400 46 7485 698 8350 1521 3863 1689 
5410 580 9497 914 4707 6201 7384 2896 1787 
6078 1589 1145 3218 7160 9290 738 1050 3713 
4738 9117 1902 4196 7642 540 5583 3699 9669 
1734 6032 5429 4038 1186 3588 608 7114 7252 
924 3683 3267 6568 6806 9193 1999 2139 8812 
2286 5057 4760 2967 1585 536 8362 705 8471 
5420 1733 4596 1486 9635 8214 7071 7253 8280 
3610 6047 5008 2046 7294 2689 7001 4642 9662 
9466 978 5561 8987 9270 1398 6434 8530 3040 
5035 3402 241 2013 7769 2138 7337 8211 3480 
1158 4442 6559 3837 949 8052 7103 5162 6441 
7648 2506 8943 7916 3024 5095 4168 6435 7346 
2106 9085 9618 577 8292 3828 2575 4706 5375 
2621 3710 4882 5000 9981 220 6748 3528 5524 
1729 9723 5056 1706 8750 8437 1886 8656 4871 
7005 2728 6265 8431 9388 7947 4483 433 975 
2456 9910 5105 9042 2200 2961 7567 4861 5959 
8716 5705 942 6627 5847 6502 8919 637 5851 
1318 2667 2257 5458 6635 8988 4322 550 9047 
6470 9651 9542 5831 5134 4228 2007 4002 1883 
6289 1981 9163 7786 8274 9861 5686 9713 1037 
1505 2987 7586 613 5961 3764 1193 1662 5814 
5745 4825 4296 3536 1513 3029 9175 6271 9765 
1810 3272 753 1783 194 3867 7130 2484 183 
4370 961 1336 626 2164 619 7666 3763 2755 
3207 7801 9139 2846 2744 4136 7579 5334 2740 
4552 9982 3723 9923 1097 9739 6849 2336 1058 
5515 5966 2513 4734 4613 8936 8894 3323 3294 
9478 6191 3566 9900 5015 5203 1388 3438 717 
4462 6318 3328 5542 4931 6096 8691 6016 2135 
391 2450 9597 9790 6933 6102 2525 9480 2858 
4192 6960 9348 3203 106 3964 7204 5202 83 
4354 1305 3987 6380 7035 5275 3247 2118 1849 
3245 3681 793 2717 5891 8721 3701 2168 8051 
6090 5367 852 7420 4528 2062 4853 2806 3855 
6901 2228 1042 3533 6478 8572 7545 4126 2497 
4057 2476 1437 5181 2825 1263 1518 5323 3198 
528 6286 2661 7297 7708 207 4817 7728 8950 
7023 5002 3634 7864 7692 5874 8599 5651 9687 
61 6942 6670 8899 4944 2655 8141 824 4862 
3007 8111 6950 6889 266 1307 8605 5389 5579 
5285 755 6583 7489 1489 5864 2471 9605 2401 
9041 6355 8535 7970 3257 4662 2493 6257 8441 
6601 7422 3881 994 1055 1634 6153 8098 4159 
7279 3668 6557 1593 9970 1255 6451 9948 7024 
9089 9898 4214 7711 8731 7631 6098 4493 2504 
7390 7608 3166 8128 1029 6906 9977 8719 7979 
544 7329 5402 2234 7529 175 6780 8920 605 
2819 3070 1232 1646 178 2624 7185 6439 9878 
9758 7418 3638 8975 3474 8932 721 5272 5849 
55 6190 3068 6682 3122 2684 5584 9325 2340 
9499 114 8061 1427 9691 2282 4043 7466 6724 
2352 7095 2916 277 4400 9705 4534 9872 2704 
4384 790 7703 9845 2908 462 7342 8986 9814 
3745 8112 1068 4149 9868 2919 3690 3978 4199 
7894 6873 1325 2417 9262 5643 6499 1468 3444 
7441 957 1070 5708 8264 582 9740 1918 8811 
5325 3820 5678 7578 803 7433 380 9433 8144 
2082 282 8487 9125 4131 2887 6927 6026 9551 
8744 9996 8007 1668 5525 168 5495 9859 1923 
4170 2906 9685 6450 9969 3000 3335 9631 2327 
6352 3797 3419 9342 6979 2124 1128 2039 8727 
8563 2665 7243 5898 1455 5733 4754 3727 7417 
8254 1753 3571 5684 9243 1866 3974 7739 2651 
2716 1152 6628 5217 9824 9475 8827 1275 3287 
4874 2408 6689 9171 6235 2866 3527 5098 7165 
6931 6164 5704 6684 6280 9709 6811 7376 4150 
9197 2585 2351 7491 5142 7405 3582 2759 1942 
9365 70 9227 3748 1945 5943 7494 5889 2226 
3333 2131 3271 3028 5381 6266 8464 5873 5575 
6963 4589 5978 2227 1708 6868 5483 4900 2710 
7787 7610 2078 7456 6694 6417 9535 2421 4441 
6645 9683 9677 2903 6051 5919 1964 4438 521 
5717 5194 2195 1636 3032 5562 5497 9219 7158 
6328 6558 2441 6356 7326 1357 4650 6169 682 
1846 6749 2443 6613 8737 9954 9747 3777 2466 
8977 1935 4272 3430 1765 3077 3069 4372 7524 
3918 9106 8416 5439 6490 1383 9799 9775 4890 
4809 4571 1426 505 3227 8376 5200 8387 9316 
5951 8032 6424 5914 6171 5884 9300 2932 5084 
71 4262 5282 8851 5869 7290 8628 2369 6820 
7359 5506 7707 7291 2136 4086 7505 9231 3465 
8715 9375 6783 2596 2126 9037 6262 8232 2233 
9554 7372 635 9736 9886 9729 8153 4242 3377 
7681 3418 4643 7332 3180 3477 713 1106 1295 
1056 8116 1160 8942 4832 6332 2852 7643 3291 
3249 4067 8757 1500 6188 9840 1607 8238 7285 
6579 448 2936 1924 8617 4515 8291 1485 5378 
3771 9881 1739 865 2360 8205 2269 6974 3425 
3562 6640 3884 6085 8665 1685 6057 6065 6230 
3760 8312 1477 965 1932 4434 7544 322 5621 
4337 3372 1170 3118 9702 6456 1550 8421 6899 
2577 1798 8856 3270 624 6650 6951 9088 3492 
8638 1163 7183 7251 3803 486 2897 9467 4496 
2438 9287 4855 3895 6055 314 2034 2085 3846 
72 9514 9066 9620 1687 4387 5724 3510 5992 
4916 6668 2747 7738 2976 741 8751 2210 7844 
4778 4823 8755 4094 7928 6859 8168 6512 8902 
2948 8071 1092 5546 764 3022 4917 8855 6825 
6206 5500 2302 2560 820 7834 3561 878 3192 
6148 7011 6069 1140 8178 318 2878 7369 3230 
7340 9049 7127 9401 3350 2289 1737 6015 9413 
7798 1631 7566 639 1129 2014 5201 7203 5550 
4993 8182 8449 1772 5054 9337 5675 553 8499 
6774 1678 1953 6462 6394 8452 9324 4172 1069 
1879 3001 4365 8804 7765 1825 52 1272 1167 
7971 218 8640 2262 3784 5455 7139 1365 5578 
4579 2840 9684 893 490 6429 7196 1392 5758 
4108 7027 1773 4804 1870 3981 8104 1560 478 
3870 2073 8316 1296 7443 2975 201 8345 4474 
9546 7896 2612 7256 3549 6895 6052 4790 7454 
4763 596 7496 6334 8643 4129 5209 8378 2354 
5922 5595 8302 461 7585 7004 8995 7805 7030 
7362 7323 2666 9273 5063 9205 2527 7259 1072 
3204 4501 418 1802 7412 9939 9817 9639 2193 
6125 5754 5719 152 3788 8059 4965 8270 1970 
3802 6852 1449 6522 3489 5218 8775 6336 7989 
7014 873 9083 5649 227 7080 6121 5087 9786 
7712 7025 9557 4703 7492 8516 2345 9087 6647 
6264 3290 7778 443 5529 6335 8426 6653 9261 
3688 2235 6181 9836 8091 4530 616 2679 6920 
9975 4801 9194 7037 4998 7800 5182 576 7036 
1360 9533 6129 9528 5397 679 9744 9756 1342 
2606 5718 7402 9126 643 6843 5752 8539 8282 
8694 1622 4604 5092 1331 3944 9855 9612 3552 
2032 3246 1705 3725 491 5482 32 2035 2229 
7982 8090 2288 5215 2074 8186 9465 3848 7016 
6312 9655 3919 5344 2962 4433 1405 1439 9094 
6563 5328 4678 2370 9776 6796 482 345 6517 
2363 4004 2702 1735 3522 4339 4573 5173 3098 
6757 5265 7700 8418 5059 7507 3601 3401 2570 
6739 1788 5504 6877 9422 888 1436 8187 324 
3948 5149 8740 6841 2958 5565 7924 2790 8060 
9082 264 2597 8832 3010 1838 2130 6314 2301 
1867 7476 5252 3196 9054 9237 6985 6306 7763 
6273 3876 2388 3917 1278 4696 6468 6254 4139 
7073 4388 2988 8279 5731 8836 1534 9019 8771 
4655 5052 3447 4010 751 8911 2926 8197 182 
3823 2263 4639 8360 6664 9440 899 7549 6317 
6525 7619 5537 6143 1452 1618 6128 2583 6113 
6775 2963 4675 403 545 3793 4867 379 8397 
985 40 8212 3296 203 5879 3036 2300 7649 
6406 6581 8548 1144 7875 7905 6706 5183 6695 
7809 4806 9209 2024 671 6281 8588 7764 53 
7766 9057 2879 4394 9124 6226 8470 9963 2495 
118 251 1816 8407 9150 4061 5169 5093 330 
1612 3766 2477 3744 9730 7371 8039 5260 8610 
6023 5848 8278 3363 1576 8537 7741 2564 138 
4694 5006 4507 5666 5187 1994 3689 6370 8904 
9583 274 1085 8009 7038 8140 9206 7411 3059 
4722 2238 8952 5306 8286 2490 6215 5499 2814 
8929 7013 8653 5064 3947 6327 1359 7389 8465 
2105 7842 8352 3499 20 4983 3611 6301 1377 
1983 1828 6760 3025 8042 9143 7817 7330 5948 
3411 2215 1256 7885 270 1839 8544 6890 139 
23 7070 2090 7849 9754 7368 658 2694 6681 
8629 8260 2160 1862 9743 6197 5390 8859 5789 
8309 1399 3138 321 9260 8826 4860 6418 2595 
6994 5668 1320 7890 1738 6244 1053 3354 8133 
4516 7981 8087 8803 2100 5587 8571 7966 859 
5372 6423 47 6582 4742 8088 7315 9520 2460 
5832 7792 6308 6340 7863 4663 3461 9572 5763 
6827 7646 3753 2644 5293 5634 1127 9751 6712 
2827 4586 6952 8944 7143 6928 8568 3087 8041 
4946 6084 3090 7057 7972 4268 1754 9415 1941 
1195 6379 4266 2646 1527 5650 7806 3452 7746 
3292 2311 986 5266 7611 5605 8241 9044 702 
7010 7429 1143 3982 7936 2592 3144 2415 7475 
3600 6022 4420 6565 1897 464 6665 908 1459 
9216 5009 6131 4957 4290 4201 4891 9665 8864 
830 7034 2067 9418 4401 2317 8268 5720 6730 
4664 8271 622 7112 4248 7735 4687 1285 6039 
5251 7824 7449 3253 8192 2844 8955 493 2122 
3387 2038 5887 5932 5280 5121 6676 8521 6654 
7227 2927 1242 1188 5470 6912 4245 5981 2995 
6508 9875 6019 8138 1663 5337 5125 2000 5536 
6331 3899 8778 3967 6107 6564 5498 225 9253 
4285 4518 5040 2047 2051 621 4026 4911 1692 
2579 5680 17 3767 1492 6410 5667 4412 7380 
8703 9839 5976 3217 4205 8782 319 7118 3808 
6291 7853 51 2410 2224 1713 8067 6857 930 
9934 3237 2565 2230 2204 1007 1234 378 7645 
3251 6918 2563 3520 8974 3506 2616 2470 8081 
8139 5783 8124 3373 8429 513 6603 5547 4238 
6360 2298 6853 1623 9865 7743 1608 2668 155 
1784 7050 3860 1564 4889 5727 5460 7995 9366 
5996 8249 4898 2296 5413 3680 6003 8322 4716 
9915 4255 1183 6310 4243 8663 231 8443 3184 
656 3798 4796 6793 2996 1442 5982 3779 8569 
1244 3593 2274 9359 2170 4404 7886 8308 996 
5247 3513 6818 8410 9295 8262 7184 3573 69 
7097 1956 2031 6156 6045 8728 8075 1562 5928 
7275 946 9372 2127 8010 8863 7228 8227 1364 
2820 5986 9329 7305 789 6761 9489 8319 9340 
7693 188 2276 9003 3615 1340 2964 777 6412 
4699 1600 4411 6028 6471 5878 510 4093 5180 
7387 1672 2660 6972 184 1174 9663 9577 712 
5036 766 3993 1856 6467 3762 8838 4381 2720 
3097 4301 5941 7654 7559 6220 5257 9416 6744 
7265 1180 8156 1120 8875 9425 1205 3391 8478 
6195 3416 8598 1670 8842 8403 8893 9107 8910 
4047 5784 7535 2774 1093 7161 7249 9021 984 
8107 41 5213 3609 2270 4231 2216 6299 8696 
4978 242 109 966 1797 2557 4357 1019 2751 
4029 8735 7202 9075 3759 7677 5991 1038 3737 
7241 5234 5358 3078 3368 1807 7152 3451 1258 
8981 1859 3448 2787 7179 5835 9492 3532 3145 
2482 2145 8973 76 2993 8157 5051 831 4538 
9595 8358 4690 2157 6486 2580 89 5581 9145 
8244 1911 8307 8862 7716 9040 4921 5066 725 
8941 9384 5937 7032 2518 2481 2420 8963 2077 
4988 5836 8336 6260 2731 7116 547 4597 2455 
821 4079 7147 2909 8896 4051 7944 1573 7226 
6817 7918 3604 8389 724 5033 1880 6050 8670 
7656 6926 972 5669 3662 5208 3071 832 9505 
641 3469 9593 2860 9515 5637 107 757 815 
4709 7991 8231 9183 603 3637 5128 9390 8002 
3088 3553 2261 541 2817 690 2149 5697 5120 
5593 7444 5342 5068 7178 4013 3136 9169 634 