# vtk DataFile Version 4.2
Generated by LIGGGHTS
ASCII
DATASET POLYDATA
POINTS 10000 float
-0.0178475 0.000897336 -0.0370272 -0.0188518 0.00724682 -0.0365206 -0.0181889 0.00890577 -0.0367409 
-0.0183222 0.0106988 -0.0367994 -0.0189085 0.0123719 -0.0364931 -0.0185973 0.0141358 -0.0366522 
-0.0190705 0.0160273 -0.0364004 -0.0181349 0.0175154 -0.0368885 -0.0210104 0.000909184 -0.035324 
-0.019448 0.00089746 -0.0362113 -0.0178508 0.00131572 -0.0352809 -0.0187174 0.00254001 -0.0362755 
-0.0203459 0.0030497 -0.0357138 -0.0211227 0.00501344 -0.0352623 -0.0183153 0.00439839 -0.0357525 
-0.0195626 0.00563327 -0.0361486 -0.0204498 0.00718447 -0.0356612 -0.0193473 0.00850373 -0.0351691 
-0.0176989 0.0078217 -0.0352251 -0.0197855 0.0100005 -0.0360345 -0.0213129 0.0110964 -0.0351448 
-0.0206075 0.0128629 -0.0355617 -0.0201398 0.0145733 -0.0358362 -0.0209286 0.0161442 -0.0353779 
-0.0199741 0.0175678 -0.0359203 -0.0208689 0.0192025 -0.0354046 -0.0193055 0.0191974 -0.0362875 
-0.0193739 0.000898934 -0.0344215 -0.0222235 0.00200522 -0.0345779 -0.0206343 0.00271993 -0.033974 
-0.0189107 0.00268319 -0.0344925 -0.022249 0.00380264 -0.0345568 -0.0196294 0.00433378 -0.03453 
-0.0176581 0.00410873 -0.0341008 -0.01967 0.00613996 -0.0344314 -0.0178772 0.0062437 -0.0343929 
-0.0232213 0.007613 -0.0339152 -0.0218852 0.00656797 -0.0347916 -0.0216846 0.00835043 -0.0349151 
-0.0224617 0.00991187 -0.0344175 -0.0205271 0.00964055 -0.034441 -0.0182536 0.0101201 -0.0351061 
-0.0232622 0.0118061 -0.0338885 -0.0195616 0.011493 -0.0350681 -0.0179789 0.0120817 -0.0344454 
-0.0219093 0.0128981 -0.0343285 -0.0190033 0.0134481 -0.035012 -0.0231988 0.0142007 -0.0339323 
-0.0216911 0.0145827 -0.0349154 -0.0201259 0.0144674 -0.0340498 -0.017703 0.014673 -0.0351656 
-0.0190376 0.0157746 -0.034622 -0.0221435 0.0160969 -0.0340581 -0.0231401 0.0176208 -0.0339674 
-0.0214776 0.017692 -0.0346479 -0.0183768 0.0173703 -0.0351189 -0.0224342 0.019202 -0.0344437 
-0.0192585 0.0191651 -0.0344919 -0.0249173 0.000896404 -0.0326867 -0.0234717 0.0010186 -0.0337419 
-0.0215561 0.000899973 -0.0333261 -0.017899 0.000891793 -0.0333964 -0.024379 0.00260876 -0.0330926 
-0.0226178 0.00233066 -0.0328574 -0.0218477 0.00394385 -0.0326803 -0.0197391 0.00377456 -0.032827 
-0.0251457 0.00416496 -0.0325094 -0.0236987 0.0042241 -0.0335779 -0.0187463 0.00521927 -0.0332039 
-0.02423 0.00627089 -0.0332076 -0.0223908 0.00545638 -0.0334815 -0.0206272 0.00530634 -0.0331559 
-0.0215348 0.0074949 -0.0333005 -0.0184714 0.00725906 -0.0330406 -0.0246949 0.00797464 -0.0328685 
-0.0199113 0.0082362 -0.0334935 -0.0244771 0.00975548 -0.0330184 -0.0214838 0.00926887 -0.0329739 
-0.0182596 0.00887752 -0.0337905 -0.0215465 0.0111277 -0.0333649 -0.0197663 0.0108865 -0.0333916 
-0.017969 0.0106133 -0.033406 -0.0234547 0.0130839 -0.0325489 -0.0202043 0.0126236 -0.0338246 
-0.0247151 0.014415 -0.0328445 -0.0184048 0.0143053 -0.0335491 -0.0238266 0.0158312 -0.033496 
-0.0212676 0.0151937 -0.0327142 -0.0189125 0.0158797 -0.0328314 -0.0204189 0.0164373 -0.0336836 
-0.0250951 0.0176459 -0.0325571 -0.0217021 0.0175316 -0.0328698 -0.0191146 0.0176541 -0.033509 
-0.0239158 0.0191946 -0.0334314 -0.0208445 0.0192021 -0.0336079 -0.0176533 0.0192079 -0.0336864 
-0.0232198 0.000891483 -0.0319689 -0.0198709 0.000991165 -0.032703 -0.026063 0.00194437 -0.0317896 
-0.0243336 0.00215865 -0.0313564 -0.0209415 0.00246113 -0.0322253 -0.018678 0.00233448 -0.0326715 
-0.0264919 0.00365203 -0.0314306 -0.0232203 0.00364119 -0.0314865 -0.0184707 0.00424481 -0.0316395 
-0.0256214 0.00587583 -0.0321369 -0.0238836 0.00528747 -0.0317519 -0.0217407 0.00539928 -0.0316281 
-0.0188084 0.00614107 -0.0316685 -0.0265087 0.00726055 -0.0314073 -0.0243209 0.00699895 -0.0314226 
-0.0227701 0.00671783 -0.0322674 -0.0202068 0.00719991 -0.0320621 -0.0230179 0.00849095 -0.0323652 
-0.0259079 0.00888379 -0.031906 -0.019807 0.00951074 -0.0322354 -0.0179443 0.00938214 -0.032098 
-0.0258231 0.0106759 -0.0319815 -0.0228604 0.0102777 -0.0324223 -0.0188131 0.011013 -0.0318751 
-0.0267377 0.0123116 -0.0312181 -0.0242092 0.0114576 -0.0324093 -0.0222551 0.0119063 -0.0319131 
-0.0204758 0.0119896 -0.032161 -0.0254101 0.0128498 -0.0323046 -0.0216729 0.0134462 -0.0326332 
-0.0187963 0.0127612 -0.0327122 -0.0263767 0.0141429 -0.0315205 -0.0229693 0.0148335 -0.0322705 
-0.0197575 0.0143059 -0.0323105 -0.0180507 0.0144255 -0.031768 -0.0264677 0.0159322 -0.0314475 
-0.0247494 0.0159875 -0.0319669 -0.0233404 0.0170584 -0.0322762 -0.0204314 0.0166984 -0.0319017 
-0.0176824 0.0179089 -0.032455 -0.0258031 0.0191993 -0.0319886 -0.0239162 0.018703 -0.0317133 
-0.0223705 0.0191854 -0.0324966 -0.0207052 0.0192027 -0.0318167 -0.0190972 0.019206 -0.0326163 
-0.0271711 0.000895775 -0.0308426 -0.0253814 0.000898003 -0.0304953 -0.0236052 0.000925252 -0.0302116 
-0.0210585 0.000891433 -0.0313667 -0.01892 0.000900805 -0.0311798 -0.0281041 0.00255314 -0.0299919 
-0.026313 0.00245136 -0.0300906 -0.0222998 0.00215703 -0.0310909 -0.019535 0.00261009 -0.0311194 
-0.0176441 0.00256766 -0.031218 -0.0248648 0.00373314 -0.0306743 -0.0206777 0.00398436 -0.0313145 
-0.0274075 0.00577836 -0.0306337 -0.0256692 0.00532129 -0.0304274 -0.0228663 0.00635597 -0.0305172 
-0.0207872 0.00651886 -0.0305096 -0.017466 0.00672276 -0.0306207 -0.0252624 0.0086538 -0.0302398 
-0.0235328 0.00841249 -0.0306501 -0.0217204 0.00781739 -0.0313185 -0.020226 0.00861927 -0.0307323 
-0.0187049 0.0079154 -0.0313868 -0.0272458 0.00930189 -0.0307816 -0.0243963 0.00987998 -0.0312291 
-0.0216983 0.00960959 -0.031226 -0.0277449 0.010967 -0.0303321 -0.0260166 0.010476 -0.0302073 
-0.0233532 0.0112312 -0.0306674 -0.0200131 0.0104029 -0.0306916 -0.017862 0.0102678 -0.0305418 
-0.0250331 0.011843 -0.0308689 -0.02809 0.0126964 -0.0300042 -0.0236192 0.013009 -0.0307577 
-0.0216956 0.012881 -0.0305088 -0.019972 0.0131979 -0.0309208 -0.0183263 0.0124817 -0.0309727 
-0.0276974 0.0146652 -0.0303704 -0.0246672 0.014449 -0.0310549 -0.0228764 0.0146731 -0.0304863 
-0.0211817 0.0145156 -0.0310558 -0.0242515 0.0159977 -0.0302371 -0.0194426 0.0149705 -0.030678 
-0.0175322 0.0155993 -0.0305067 -0.0220692 0.016128 -0.0314065 -0.018715 0.016886 -0.0313537 
-0.0267844 0.0176808 -0.0311811 -0.0250382 0.0175298 -0.0307701 -0.0232617 0.0174964 -0.0305372 
-0.0215727 0.0178206 -0.0310671 -0.0195675 0.0183412 -0.0307266 -0.0274844 0.0192083 -0.0305637 
-0.0245383 0.0191821 -0.0301059 -0.0226956 0.0192015 -0.0304994 -0.0180235 0.019152 -0.0311789 
-0.0286087 0.000896056 -0.0295156 -0.0266892 0.000940806 -0.0291189 -0.0218609 0.00090694 -0.0297664 
-0.0201115 0.00138837 -0.0299201 -0.0293861 0.00255483 -0.0287333 -0.0236163 0.00270532 -0.029807 
-0.0185224 0.00222396 -0.0296862 -0.0223938 0.00377094 -0.0290389 -0.0211098 0.00288716 -0.0299531 
-0.0196161 0.00389652 -0.0298702 -0.0178206 0.00385166 -0.0299734 -0.0287477 0.00411067 -0.0293719 
-0.0270095 0.00423267 -0.0298166 -0.0234907 0.00473177 -0.0300912 -0.0213608 0.00492154 -0.0299449 
-0.0288976 0.0058941 -0.0292282 -0.0186886 0.00543007 -0.0300292 -0.0282852 0.00747587 -0.0298194 
-0.0264019 0.0065853 -0.0293814 -0.0246303 0.0066014 -0.0297094 -0.0233105 0.0076245 -0.0290555 
-0.0188925 0.0072815 -0.0296916 -0.0267839 0.00834012 -0.0293434 -0.0219952 0.00863241 -0.0297459 
-0.0205522 0.00772456 -0.0291801 -0.0285467 0.00954647 -0.0295705 -0.0233294 0.00982098 -0.0295602 
-0.0188668 0.00907841 -0.0296469 -0.0216035 0.0110208 -0.030124 -0.0290204 0.0112636 -0.0291064 
-0.0257094 0.0119678 -0.0292184 -0.0239218 0.012111 -0.0292125 -0.0202287 0.0120373 -0.0295808 
-0.0186198 0.0112996 -0.0292944 -0.0264697 0.0134579 -0.0298649 -0.0227098 0.0134413 -0.029132 
-0.0247427 0.0136886 -0.0294414 -0.0201047 0.0140022 -0.0293229 -0.0178432 0.0139102 -0.0300003 
-0.0288105 0.0156054 -0.0293145 -0.0258811 0.0151555 -0.0299331 -0.0206258 0.0158374 -0.029642 
-0.0187928 0.0158519 -0.0292606 -0.0272703 0.0163525 -0.0298928 -0.0223819 0.016218 -0.0296393 
-0.0286093 0.0174943 -0.0295126 -0.0262439 0.0177831 -0.0294683 -0.0244191 0.0176815 -0.0290894 
-0.0207235 0.0175935 -0.0292616 -0.0184737 0.0175969 -0.0295126 -0.0291112 0.0192012 -0.0290126 
-0.0273243 0.0192073 -0.0287852 -0.0209711 0.019205 -0.0300114 -0.0176914 0.0192084 -0.0294162 
-0.0298718 0.000898689 -0.0282292 -0.0281122 0.000897485 -0.0277943 -0.0243859 0.000897681 -0.0285911 
-0.0220919 0.00089814 -0.0279901 -0.0203043 0.000895267 -0.0281714 -0.0175348 0.00089487 -0.0289889 
-0.0271177 0.00257202 -0.0284889 -0.0251397 0.00252405 -0.0287373 -0.0233648 0.00228685 -0.0280816 
-0.0215731 0.00261903 -0.0279273 -0.0199015 0.00258955 -0.0285979 -0.0260536 0.0040147 -0.0283199 
-0.0186338 0.00393307 -0.0283694 -0.0299805 0.00450187 -0.0281234 -0.0278322 0.00408315 -0.0278258 
-0.024254 0.00408086 -0.0286081 -0.020685 0.00419467 -0.0284595 -0.0272825 0.00578341 -0.0280339 
-0.0252144 0.00559418 -0.0283556 -0.0234488 0.0057599 -0.028622 -0.0200999 0.00582822 -0.0289908 
-0.0183363 0.00603976 -0.0283801 -0.0300822 0.00646911 -0.0280076 -0.0282918 0.00721488 -0.0276151 
-0.021879 0.00652847 -0.0290302 -0.0294861 0.00809861 -0.0286324 -0.0251811 0.00790604 -0.0286106 
-0.0219101 0.0080719 -0.0280293 -0.0186438 0.00813716 -0.0281329 -0.029793 0.00984546 -0.0283152 
-0.0217805 0.00988767 -0.028486 -0.0185386 0.00994141 -0.0281026 -0.0249182 0.0104139 -0.028791 
-0.0233827 0.0103985 -0.027864 -0.0201072 0.0103814 -0.028902 -0.0303137 0.0118968 -0.0277509 
-0.0272862 0.0113422 -0.0286415 -0.0223076 0.0116335 -0.0285933 -0.0193147 0.0124192 -0.0280744 
-0.0291318 0.0129769 -0.0285718 -0.0273529 0.0131103 -0.0283432 -0.024092 0.0133486 -0.027813 
-0.0211012 0.0129305 -0.0282934 -0.0176513 0.012686 -0.0287031 -0.0304435 0.0137485 -0.0276221 
-0.0287301 0.0144055 -0.0275604 -0.0257191 0.0142688 -0.0280464 -0.0185848 0.0142835 -0.0284122 
-0.0301482 0.0154951 -0.0279334 -0.0272447 0.0149945 -0.0286647 -0.0236193 0.0149751 -0.0288836 
-0.0217506 0.0149332 -0.0285621 -0.0173325 0.0156009 -0.028098 -0.0298563 0.0172417 -0.028247 
[...]
POINT_DATA 10000
FIELD FieldData 7
id 1 10000 int
1580 4522 5909 7852 1473 5097 1146 7762 2013 
9213 9451 9313 8122 4528 6082 458 4929 9008 
8251 4955 5614 4767 9712 2772 5018 9709 9971 
4216 5872 3810 5229 6585 2616 4421 5390 8494 
439 5284 4623 7838 7199 6284 7012 9658 2509 
9298 7034 9619 7837 1311 562 820 3306 6652 
6155 517 8761 7328 2559 4805 9622 1082 8490 
2338 4046 3563 9675 5617 5767 6175 4922 1882 
7125 8281 6816 9756 3444 2484 5152 3335 1748 
9959 8833 2758 9790 2931 9420 5328 5257 6009 
7642 8353 9902 8622 5361 8164 4774 5885 3233 
9916 4553 671 9719 300 7008 7720 7389 9646 
3802 6472 7876 6305 2594 9164 4199 4625 4276 
7883 6316 1061 2058 9555 5080 7756 9728 216 
3543 2383 7446 7411 4082 9788 9688 3723 6069 
2969 4380 1334 9581 1204 7572 5749 904 241 
2761 5498 7423 9772 7839 951 2044 2719 4481 
8005 7740 8787 1948 2309 1605 4474 625 9215 
4919 1288 9373 699 9685 662 1153 7997 5608 
6919 7415 1954 1269 4251 3639 6723 6344 5858 
1982 2710 3914 1335 1420 9883 9661 1572 1501 
2335 761 7372 1100 108 6122 9285 9970 3994 
8405 4926 6747 5322 6169 211 3553 7676 3431 
9980 668 4564 9895 3838 9178 7602 1124 1457 
3132 9263 6869 2216 6060 1562 3519 7082 9743 
597 4578 1793 316 8087 5943 635 3573 1102 
9548 712 1531 4900 1797 4029 6259 9663 3517 
387 6097 6834 1292 1671 8310 1573 1338 1976 
3481 9135 3552 9094 838 3891 484 4396 6529 
2853 1984 9817 1762 9864 9232 3062 2323 451 
2720 5819 9290 9502 6174 9335 4250 1030 9698 
4748 3944 2436 4825 6079 62 7815 4033 1678 
8125 4210 2233 2136 1983 3866 9701 9978 2009 
1955 9859 6796 3612 2958 1690 5351 9028 1391 
1134 1597 7188 129 8921 5310 5560 4167 1574 
6908 4700 7638 9944 2547 9297 490 1701 5333 
4810 8871 5707 4340 7655 2459 5968 4012 7064 
1957 1252 4228 7493 3503 193 2832 4709 7710 
9157 6179 661 7216 9750 6231 1104 3600 9627 
7822 1485 1497 2889 9584 2762 690 2998 8180 
8536 7522 79 2556 9830 3609 2824 4206 4740 
4645 4475 4118 3681 3782 4802 4111 4231 5156 
1734 9997 3185 700 2132 7035 2112 877 7781 
1840 2157 6216 6835 2655 6731 8723 9209 6980 
5539 6791 9954 849 175 2003 2511 1509 9702 
9621 1049 3766 8897 8718 2066 4856 5647 9578 
2798 437 341 2193 1089 9195 5413 8974 1549 
5083 4595 771 9469 8829 979 952 424 9644 
4286 886 4420 3507 3074 1537 101 9171 2510 
2288 4453 5620 846 3817 206 4503 1014 1162 
5249 8064 878 335 6273 438 9034 9689 1709 
6833 1988 609 8029 7746 3508 6460 4524 6502 
1164 9488 6732 9977 7268 2938 3939 2220 9629 
2717 4068 3462 5147 5127 1091 9170 987 7207 
3305 7146 3190 3686 8845 9703 561 6072 7620 
684 2237 5597 3554 9673 361 4087 1593 2640 
8617 4967 1914 382 1716 2444 7511 5935 3171 
677 2075 1257 9173 6047 2966 360 414 3117 
3941 822 4692 3015 6781 1484 1994 1369 8852 
4588 388 7807 3767 3536 1658 1107 3257 3007 
3313 5136 2366 7077 5168 7699 816 7507 4272 
8939 3629 6963 4116 4602 9275 157 4965 3705 
2642 1442 1869 4315 5986 3625 2825 4624 7904 
2996 5358 1759 8916 22 2827 1918 5424 970 
3235 4208 8627 3173 2721 1708 2334 1181 3599 
8469 1931 7038 4305 3865 2899 4113 2541 321 
3433 3693 4989 714 991 3199 1635 4855 9877 
7554 9803 4845 5572 7128 9871 189 4964 2793 
1555 6702 1426 7941 7743 7309 4283 8621 2604 
5559 7615 7282 8804 7337 4988 2207 4643 2310 
9906 5763 1187 4763 68 3997 180 2678 2257 
8234 9816 7151 1844 4691 8719 7421 6418 238 
351 2735 1195 513 6197 3096 8110 8773 1249 
3761 9662 3447 2202 6096 5503 75 8781 2934 
3978 2452 9620 5398 4739 2088 423 6299 9886 
6517 5334 5815 4112 2502 841 3613 2371 2035 
3274 4052 997 3370 4343 9984 1287 828 6778 
3800 6201 1819 3208 3909 2521 1974 6650 5030 
4493 7669 2575 8866 3667 6634 7736 2987 1732 
3329 1373 9006 9042 4615 5821 9000 1279 9705 
4014 6819 798 8181 6289 8021 4781 2624 2077 
5402 6520 4769 6992 1595 1796 21 7431 2152 
9795 3016 2358 1825 5401 3292 606 5543 6150 
3515 6852 9110 4778 8913 5450 1095 2226 8808 
11 8521 1616 5426 1441 287 3421 3146 1959 
4348 8099 9256 1483 1919 3093 4717 6173 5849 
6394 8612 6206 4628 2356 9671 3694 3439 2940 
2537 6419 9941 2258 2622 4720 3091 6438 5889 
3754 2910 2869 9460 3309 4015 2596 5506 7455 
9985 9371 3755 8899 146 4207 1852 5920 5764 
5741 2267 1333 2961 7654 3135 7483 1035 942 
1681 2083 825 2023 5695 3238 623 237 1365 
8846 3204 3460 7553 2099 4664 1179 344 1519 
5931 722 3878 9246 9529 7417 8351 4397 3655 
6553 4859 8043 2980 4824 5416 6995 774 6264 
9546 6039 701 1231 9782 6683 8947 9711 2473 
4203 6022 9947 7252 827 2289 3196 5800 197 
2206 9510 4133 8518 8550 915 3098 9115 6970 
5908 5904 3053 3123 6446 250 7210 3178 9968 
9248 3262 5633 7072 5602 9923 9692 8297 9397 
4972 7879 9852 1329 7063 9875 726 9319 3680 
4431 9382 284 224 2340 330 2377 6792 8936 
9608 8932 1474 7886 7277 2240 6759 5485 5960 
2928 6386 1126 442 5861 3320 2658 1009 7850 
9402 77 4897 7093 5010 4786 9853 7182 7885 
1702 1180 380 6391 9639 2048 3919 4057 6727 
345 2370 3825 9933 9851 4357 6398 2799 5725 
1932 1026 6309 7021 4387 9023 1949 2251 1012 
1558 8204 4639 9753 4399 3043 3574 4317 7609 
7398 5435 9693 8410 1008 946 2485 7222 7547 
9345 6497 1512 7717 5912 7944 5274 7930 5309 
4912 8409 7958 4221 3728 2164 1559 3905 7376 
889 3197 1829 4091 1697 7479 8927 5122 6430 
9827 7332 1571 8336 3376 3894 1253 961 7571 
4891 2601 1161 9987 9522 3727 269 8765 6296 
1866 136 5443 8245 8268 758 6719 3692 4096 
363 1875 8016 2529 4742 5720 8338 598 4994 
830 3842 6829 7994 7752 8186 8946 4783 9011 
4190 1820 2866 4725 748 2039 9520 2387 3675 
8360 7071 5769 2892 1266 5631 5555 4232 4271 
9065 8412 7704 9466 7375 8114 9332 504 1764 
3741 8869 6362 2186 8684 9948 8967 6035 4600 
2656 2020 8368 3706 7811 9579 3432 2156 3134 
6836 8211 7737 2812 3602 7574 9602 9659 2348 
1037 7214 7045 8757 6647 7856 456 8786 3354 
4220 7310 8128 4903 3906 2946 3742 9575 9229 
1754 2724 3892 7189 8783 1017 3684 9483 5479 
9694 5230 1615 7784 1588 4419 7112 9458 9894 
1714 8587 6544 2821 2768 7512 4534 2266 8735 
4436 8534 7583 9544 320 2802 9307 6067 3864 
24 2877 924 2897 5917 7233 8074 4916 565 
2756 529 7938 6250 8514 8873 4023 7158 685 
4011 5654 5352 7830 6760 3666 7661 2447 9270 
5158 7443 7777 7236 3224 4273 5286 9915 9789 
818 927 7556 8138 5055 4026 7814 595 491 
5064 4497 5474 6757 4176 6503 9112 7359 2108 
823 704 4219 6485 9572 9415 9600 2489 3912 
8308 573 3395 971 673 9414 1855 6358 9243 
2790 6985 4590 5089 2814 5995 4439 6280 2478 
2188 7722 2416 6437 508 7709 9002 3698 8499 
6934 7272 1088 3011 4573 4565 4655 6692 7460 
3511 7450 8568 8100 6505 5532 1413 2055 4714 
482 5880 6163 1063 4007 6141 3620 5794 8844 
7406 3359 8772 3473 1086 917 2538 5011 3765 
6368 8104 6838 8660 8849 6501 2192 9444 6161 
1361 7990 7697 9037 9736 2008 920 7719 8662 
8239 9198 4940 261 5218 9484 9747 2577 2517 
4213 3456 6745 7540 7986 9069 2828 8277 1076 
3557 6411 995 4616 7264 5775 604 9561 5139 
19 6900 1110 6233 5025 6577 6660 4887 3535 
7140 5240 5429 260 9179 377 3441 7668 6518 
6945 7319 6681 528 1787 3422 5483 6455 4574 
290 6587 2270 8026 303 3908 2700 6235 9656 
301 639 3286 6313 8819 9316 7579 5290 7482 
3269 9459 9405 1258 4143 2733 4326 6595 9071 
8639 5108 9245 9920 4365 8397 6714 5354 6752 
7628 9225 5528 5359 4746 6798 5129 7488 6890 
6046 3136 2426 2002 9194 7515 5434 5243 2878 
7650 9317 9757 1536 7050 9491 5627 4309 9873 
9410 8881 2347 4376 5370 6167 3322 5180 9088 
1003 8248 9148 9005 6793 6253 3283 4878 982 
7111 6459 688 800 8706 5308 8671 2603 430 
6342 82 7485 1543 2449 1878 5411 8086 9125 
8364 4744 9218 3411 8674 7404 7498 9846 9645 
3149 6442 5768 5051 907 3219 4935 8642 5966 
1515 9376 9389 2328 8908 8680 3100 203 9320 
8437 4947 1245 3077 3584 4517 8040 2403 6023 
9282 6928 3071 7714 5586 5536 6319 1758 2911 
4355 6100 8677 8231 5730 8158 477 5124 4987 
7921 2728 5807 9863 1550 801 6876 9210 7718 
5875 9375 5100 7508 4613 2372 1406 4416 2477 
6400 6024 4815 5072 6078 5662 4070 8274 5765 
3467 1029 9003 9325 9185 7897 7445 4622 1777 
4088 6059 4701 1760 9765 7855 9085 1240 574 
511 8928 5163 7449 6911 6448 5369 8421 1411 
2 7304 7053 8776 9118 4604 25 2923 5652 
9204 2652 8203 6088 2433 8 3210 8960 5073 
6586 9908 2701 1118 1506 9276 8178 3092 5925 
1586 7922 6279 9567 2706 1147 6011 1943 8284 
9435 6625 4962 2279 9384 8352 7156 8342 8149 
5497 5047 3122 6157 1850 6749 6817 8799 1386 
6031 8756 9511 2527 6886 8564 2419 6033 8577 
8486 4175 7091 9638 6680 1816 1388 8429 126 
5708 576 4450 9732 3750 5877 8556 172 1763 
7092 1359 5745 7014 5456 4582 8004 1427 3404 
5195 7818 7586 2680 85 3009 2546 7343 2729 
5495 9550 4336 1387 297 1152 821 8581 7357 
6450 9825 1570 1112 3862 2488 8661 1967 6591 
489 4050 7734 5196 3787 1315 8850 860 2626 
8006 1263 632 2311 7414 5164 3206 6244 8219 
7873 2875 5883 4990 208 870 8060 5107 9557 
3896 4265 2942 8329 5911 3469 9001 9046 8108 
8862 6748 9265 1654 6414 7322 9254 8424 1769 
1907 1946 3097 8903 7786 9199 4690 3180 4169 
8474 9392 4775 9556 6395 5468 6655 832 4979 
6622 8905 9913 9545 8685 3 3094 9431 9036 
4459 6504 4154 83 2333 5063 6427 6335 6409 
9652 5428 5519 7996 591 1393 8391 9442 7959 
9838 2555 4840 3111 7436 9365 6101 8298 1828 
6762 3963 9137 2130 4440 4328 9759 9855 8824 
457 1273 1083 8646 5442 1783 1611 8673 1379 
2507 6349 5117 5774 5046 8910 6286 6481 9448 
5684 7808 9716 1418 1861 3774 8105 7430 7133 
9116 2365 6255 7465 7619 9352 7491 3590 7278 
7573 8433 7626 3052 4703 5235 7919 7589 2241 
3540 8779 5636 898 8468 7867 4944 8966 8664 
8635 20 4736 2797 6783 5882 7581 1979 5836 
6899 3735 2105 6209 6210 9857 6449 6010 1811 
8548 7471 6410 8034 1384 868 1660 4594 5461 
5050 8255 5529 9862 5346 6068 6813 7804 4404 
8539 4752 2134 2579 8093 9842 634 1109 293 
2924 8407 5069 8965 5350 9446 1215 7131 5408 
3529 9882 2135 4071 4632 7782 6698 8279 5835 
9348 3887 7516 3597 256 9443 8828 3917 5420 
9056 2951 2791 6365 9018 5327 4078 9911 272 
9358 5978 3054 1627 4945 4538 2944 6071 5899 
8825 7549 8986 4807 5034 3635 3253 222 8404 
5530 4723 1004 8801 9090 8553 6051 8810 7462 
5162 7905 7362 8387 9500 9832 1712 2214 7228 
2504 9914 6484 2429 5829 4818 5084 9395 7371 
7386 4999 7426 5825 7457 9539 9156 2442 4730 
7999 2776 3809 9281 5814 5610 112 8616 8522 
6499 7466 8993 7170 2363 6116 7331 7342 9096 
9551 3757 6682 7805 5161 8470 8075 7894 1665 
1637 731 1830 2781 4433 6212 9439 3644 1399 
5722 6998 4539 1011 4927 4932 5556 5859 7287 
6866 8771 444 622 9549 3922 7084 611 2144 
9196 6462 8609 9192 8812 8195 426 4914 7255 
9119 8319 9687 9774 3743 6784 2210 5655 2871 
8076 6734 9580 9898 6142 5963 2994 4518 225 
6686 4119 5208 8963 3176 4298 4535 385 6226 
8367 6706 5965 2567 2213 4145 9538 8184 5283 
9582 4062 4045 9143 6588 9326 6265 1920 4527 
7656 7765 5804 5238 6470 3748 8995 7172 9261 
9234 4505 5439 5272 6519 5987 6546 5500 1698 
481 6827 3014 8246 5773 8299 5423 5096 1283 
9521 8657 5994 8832 8867 3797 7044 7985 7501 
8973 8596 6377 9844 1200 4163 6053 6685 6164 
8712 9343 9696 8952 1092 918 5756 5417 8495 
5553 6854 5038 7119 1138 7470 4607 3793 4294 
5036 6385 5957 8162 6629 9492 1326 5386 5427 
7600 3610 3241 350 6263 3387 7542 4141 5103 
7835 5791 6578 3528 4770 850 8188 7688 7396 
9804 2718 6977 406 1496 14 781 198 2287 
4507 7546 3101 1446 7005 4846 2882 8015 15 
6098 4043 9479 5219 1328 9976 5193 7051 641 
1270 2644 7242 7454 8000 9364 3942 7801 5621 
6594 8415 6479 4513 9729 2283 8775 7694 1700 
7171 6013 9163 7006 51 5551 9564 9834 3338 
8892 152 5067 9653 9590 7495 2049 3465 3455 
5273 7387 8644 288 6755 1863 7429 9943 1853 
3049 3836 4247 510 705 8573 8631 4261 493 
2004 9334 3350 5975 7500 6602 6699 1782 4928 
1541 5537 5043 7307 6037 9342 7164 8444 2722 
7776 2398 1905 7320 6664 2968 5946 3413 2822 
2304 1911 6670 9040 417 3255 8566 3165 471 
7030 5611 8206 8929 9052 2005 2256 7047 3188 
8292 716 5021 4478 8942 9273 9310 5840 2817 
4951 5638 7979 6943 854 6205 9726 7052 3998 
7291 6554 1818 7672 3566 2265 5492 5802 9633 
1713 107 4599 8096 4866 9934 9800 6975 1917 
548 7925 2076 2764 1367 7440 1039 840 3326 
3820 5915 4064 2064 8579 5212 3951 9366 8740 
2320 3615 9565 7576 5471 2176 5477 7580 9586 
9559 5969 3561 782 8282 6597 7753 9553 3771 
5996 7928 190 4917 1895 8420 8938 6709 115 
8373 4123 2264 3850 7249 7724 2235 6369 8582 
738 4356 8769 2069 1186 7550 9509 8576 5870 
666 578 9604 210 8987 6249 7898 8067 8703 
8428 8287 9981 2681 4854 680 1612 8935 8614 
6183 7587 750 8249 5116 5464 6618 6283 5533 
8333 4921 9132 3848 3377 5247 4937 3195 7162 
9241 6146 2269 5640 353 4192 9937 8590 4197 
1587 3360 6507 6950 1500 1567 2737 2704 8090 
3873 8964 9967 7058 6931 4230 6823 7388 4209 
9931 1786 3746 8595 8376 5873 6802 6117 3521 
7127 743 5197 1235 8724 5397 7770 2228 3595 
5241 4620 7593 8532 8632 9998 8106 6604 6548 
5048 5788 7143 9815 921 318 6166 6077 1499 
8655 8565 4426 6000 2949 4754 4297 9144 5776 
5252 7543 1241 2754 3658 7477 3966 6955 5012 
9010 7791 6332 4107 4054 5547 1494 8725 3420 
9610 2520 1467 6204 5522 7239 788 2142 2834 
5897 3704 7799 9098 6034 4148 1582 8244 6256 
333 3863 1158 3637 8348 2376 7561 7903 2499 
7017 9264 780 4253 3325 5988 7109 5615 5348 
7523 9480 8758 9220 104 7270 2513 6771 586 
205 202 9922 9881 5406 2190 372 5053 6946 
1735 4344 5680 7907 3542 9403 8270 3688 813 
2585 6967 5110 4576 9131 7318 2912 8001 2528 
5304 3594 9426 851 4110 3064 7657 4170 810 
7475 7379 2054 3086 3992 630 5301 3479 6958 
2022 7339 1093 958 6001 9142 9966 3186 1527 
2557 2886 2711 7677 5878 6240 8446 6357 2917 
8583 875 7456 7427 4382 6475 9283 3954 5184 
9359 7285 8667 6440 2831 3025 2454 8169 441 
5509 6239 57 128 2166 6889 336 7335 5929 
1810 1053 3532 5297 2939 4449 6579 9203 6605 
7544 2492 7068 3845 3818 3918 213 4347 5779 
2643 396 2826 8385 6356 1404 2141 2019 2757 
6500 4976 9903 7267 7186 1578 9380 5724 3151 
1341 6864 7960 5693 1067 492 4772 1033 5754 
7324 6545 5852 7927 2171 473 8082 81 8027 
5748 6492 647 582 8028 5953 3167 5823 5200 
3938 8252 9758 4051 7169 4073 721 9321 9083 
7206 2959 3480 2441 3081 435 5289 4124 7178 
8815 5590 559 3336 3804 4572 9938 7055 7505 
2638 8750 4200 2490 3457 3794 8958 6062 3021 
5255 3295 7412 7305 9995 6162 539 5086 2016 
537 2024 9150 2215 5440 2936 2564 1801 6424 
5409 3943 2977 676 7142 3089 7533 299 5140 
5666 3415 9654 996 2268 9571 2515 689 6790 
3897 6525 5928 8493 7888 1581 1812 2744 9681 
4249 8877 6552 9780 2043 5058 4875 3830 8324 
1465 8693 2560 2324 6891 3709 9945 1135 7490 
4240 9965 9731 7439 5903 1683 7361 9791 8452 
7584 1280 2364 607 2438 7487 9597 1897 310 
4704 9401 709 1042 383 7957 4797 6584 9606 
541 480 1368 2396 2841 6061 1746 4848 65 
296 6474 6808 7562 2341 5696 7971 8615 6616 
4521 3001 615 3449 4731 7862 5299 1636 9339 
2545 8640 425 4789 733 538 1556 7433 5379 
7217 8207 3080 1332 4487 525 2261 4968 1740 
5922 4610 9583 3651 8400 501 3346 4411 5128 
4413 4556 5000 2647 7575 9454 3200 276 3331 
9158 8797 9910 1159 1052 3650 7090 2646 2183 
8701 9697 4223 2314 6085 132 186 9972 992 
6495 3407 2787 4314 285 9637 2263 3353 8023 
4339 1313 7054 7723 7702 3339 2820 1991 1694 
7029 6739 1899 9952 4115 984 5183 9828 6697 
3039 1226 2525 8709 3490 6214 2406 6825 5134 
9147 2569 3808 4592 4329 2578 2591 4117 5475 
6172 9957 5169 876 2021 1598 9378 3827 8857 
7323 7425 1448 1978 3034 7591 1216 2316 8555 
9064 8377 6403 999 985 1210 3768 8069 7896 
4310 3730 600 6043 433 5653 1799 5705 7892 
7391 6367 167 3722 3088 1054 6674 6346 3276 
6541 2474 7691 5983 389 4059 1610 67 58 
2685 2571 9831 5678 4901 308 2253 3719 9921 
7235 2773 1854 8836 1048 3348 8744 1585 9406 
3118 7160 3416 5149 8748 3731 6906 5052 7983 
3056 4838 5367 2597 2252 3028 2194 5613 4992 
5850 1464 746 4477 3330 1510 3778 5712 627 
2101 4542 9233 2482 2979 6092 6700 9960 9724 
2512 571 4042 1219 1438 3160 6493 7346 8713 
5209 1719 3833 368 4890 8854 6999 5102 6432 
2276 8729 8189 8215 3931 633 9255 3901 9595 
9259 2369 1229 521 8623 6684 9055 9607 7568 
8141 127 3607 2073 8665 5520 7967 9626 707 
1965 4412 1047 3685 30 8636 9528 7590 7180 
9472 9267 4495 488 8508 8002 3762 1449 337 
535 6048 9367 2894 183 7942 5316 8498 9532 
6549 799 3382 1653 7909 4105 5933 6689 9725 
9805 3940 6381 3340 4320 33 2437 7932 1254 
6463 9524 6903 911 8217 4401 346 9288 4196 
6969 98 2759 8749 5098 72 795 7360 6809 
9497 464 3085 3139 8176 1504 69 5157 9084 
7193 5782 4003 3459 1684 2466 9542 7891 1608 
274 376 4668 6746 3991 6874 6114 4963 1521 
9515 8359 9534 727 2599 2965 9082 6828 6721 
4424 9601 1431 6112 3237 4943 9272 9074 8945 
8458 6165 4378 9896 9618 2660 5189 2981 9124 
5119 4061 3337 8451 6392 1956 770 1002 4737 
3739 9955 9951 9574 5205 3987 9856 8445 1410 
4358 3628 84 3601 6786 9787 7844 5173 4583 
8147 7795 865 2362 2726 6030 1995 9776 9527 
5577 7551 1620 4291 2898 6872 3229 4006 7349 
9946 3588 8817 7910 9690 2672 4472 12 5604 
1397 802 8762 7569 7865 4442 6007 1343 7946 
2573 1693 3923 8711 7032 158 7974 5579 8504 
4044 9723 2175 5942 6247 6428 3882 8669 2146 
7939 6728 9850 9767 5558 6134 5404 1381 6645 
6947 7632 6506 2552 8818 4080 212 5955 8788 
8541 5111 1331 4670 7766 7124 7336 5786 9752 
6337 5204 7469 9907 9465 8434 6363 5265 9092 
9764 9038 9299 93 356 7747 879 1923 4830 
9710 7951 2745 3463 9741 4398 7438 1133 9912 
6213 6020 6974 6912 9991 3513 8456 1851 1417 
8311 9614 9328 1547 8478 2404 9591 8830 6608 
4451 2082 6873 4352 6756 1867 3381 2483 4323 
470 2061 185 8092 9628 8687 1488 4362 4266 
1891 9835 2775 247 7373 8372 723 9012 6193 
9593 1780 8800 5326 7733 6318 9854 3604 8101 
6672 9061 6490 9762 6716 1724 7380 1099 4981 
8032 7934 8872 6717 4308 4041 2299 5848 9927 
6003 6930 6696 6372 1524 3564 7682 4952 9390 
8707 9647 9751 9362 8853 1839 8524 5591 9798 
8559 1987 6537 1860 1628 4633 6028 5300 9100 
2037 6850 6044 2084 7283 5462 2863 4047 5886 
6799 5181 8912 1319 7984 5457 5787 6271 1405 
8243 6222 7114 4936 4408 6457 1618 7494 862 
9631 719 6207 3466 1308 4710 9399 4938 5906 
1351 4498 315 4324 6740 6287 7842 5385 6465 
9707 9494 8782 8221 5120 4997 9506 8083 7937 
7769 9493 7520 9027 5618 5790 7413 7827 5091 
2412 5329 9990 6626 7764 9189 9814 9576 5884 
8571 8692 2982 5383 9649 7901 9632 1711 9207 
6637 9888 5288 6310 9891 2907 1148 7132 6766 
5143 3109 7793 1950 7049 6110 9848 7223 8864 
3282 6522 9733 3687 9826 3182 7621 9973 6744 
5393 8933 8876 5085 9847 7748 5186 5123 6123 
8794 8934 9986 5916 8236 3732 9786 7535 6885 
6065 7771 5131 446 8625 5565 7531 4567 9837 
9714 7819 8201 6055 7271 7824 5364 6511 831 
1174 1699 1439 7341 8228 5087 8009 8022 7690 
5688 6558 90 9748 8389 9722 8011 6718 7895 
4961 8358 8408 9683 4984 9566 9768 7948 9829 
8547 8931 5335 6667 9889 9562 6353 6559 819 
6780 2469 7444 7914 6880 6648 5221 9445 9514 
1234 7117 8747 5954 7869 6070 8371 6104 5060 
6936 7667 4165 4371 2879 165 7625 5888 8049 
6649 9869 9770 7707 8678 5179 9641 4758 964 
6897 9346 7969 5646 6004 6944 6091 7636 8720 
3712 7976 1599 767 6668 7950 5496 6941 9667 
7057 4536 7367 5258 9824 7816 1757 6738 5374 
9416 9552 8457 5472 9537 5291 7712 9623 6328 
8140 5924 7173 5045 5187 6397 8441 8517 8139 
8354 7390 5967 8694 9570 8375 8985 1097 5405 
6562 6617 3835 7153 6794 2865 9041 6662 2553 
3351 6129 8160 6473 8380 5713 6613 8675 784 
6281 7854 4546 6121 397 9219 9202 9899 9964 
9585 1870 1517 7022 8531 6429 8288 3776 7566 
5293 7226 9664 7370 8185 9655 5524 8337 9568 
6661 5486 9763 6312 2153 1961 543 5659 7730 
9107 6420 2453 9880 9932 8672 8875 7259 563 
8461 6954 3058 5710 6278 7086 7534 7241 7834 
5826 6182 7369 8202 6536 8233 6187 8802 2464 
9599 3737 8626 2983 8726 5854 1165 5847 9677 
9925 7286 3881 8506 395 8081 7003 1424 1132 
9427 8209 6236 3260 6610 8545 757 9917 5864 
5699 7306 4910 8764 4674 6433 9517 5094 3799 
9588 6572 5626 8273 9598 8592 5527 9498 9874 
7774 1947 6064 2854 9742 5544 6973 6956 8073 
4715 5387 9700 6807 7144 8350 7265 4958 9231 
9121 7420 8902 8269 8597 8205 2767 8257 5623 
8745 3213 5493 7218 5275 5936 9134 6483 3753 
7683 5378 6017 5302 9059 9523 5976 8072 1836 
7673 9161 6878 9612 5729 5673 8465 9691 9089 
7755 9398 8731 7028 8697 199 7266 7334 7947 
5324 7097 5081 2843 9836 5037 7269 1470 2472 
9035 6301 4222 9133 8535 5574 4393 5171 9818 
2595 6181 5737 9878 9919 1566 3073 9217 7788 