# vtk DataFile Version 4.2
Generated by LIGGGHTS
ASCII
DATASET POLYDATA
POINTS 10000 float
-0.0181582 0.00090045 -0.0368745 -0.018272 0.00778627 -0.0365397 -0.0177703 0.0101576 -0.0370592 
-0.0182888 0.0118835 -0.0368129 -0.0187709 0.0135957 -0.0365592 -0.0178322 0.0150539 -0.0370328 
-0.0184231 0.019161 -0.0367401 -0.021298 0.000895591 -0.035157 -0.0197501 0.00100895 -0.0360495 
-0.0210321 0.0026661 -0.0353022 -0.0192442 0.00271117 -0.0363194 -0.0205257 0.00436131 -0.0356121 
-0.0187874 0.00459347 -0.0360056 -0.020819 0.00612599 -0.0354445 -0.019262 0.00629662 -0.0363187 
-0.0209379 0.00791931 -0.0353727 -0.0210584 0.00970789 -0.035297 -0.0196229 0.00889882 -0.0361194 
-0.0195938 0.0108157 -0.0361355 -0.019787 0.0125066 -0.035554 -0.0205914 0.0142549 -0.0355784 
-0.0190405 0.0151533 -0.0357049 -0.0202842 0.016451 -0.0357472 -0.0188578 0.0174676 -0.0361527 
-0.0202116 0.0185928 -0.035797 -0.0183129 0.000896016 -0.0349767 -0.0232964 0.00236551 -0.0338677 
-0.0201873 0.00173329 -0.0340169 -0.0222782 0.00371662 -0.0345426 -0.019142 0.00342989 -0.0346795 
-0.0232125 0.00514866 -0.0339165 -0.021414 0.00516944 -0.0339394 -0.0196272 0.00529956 -0.034375 
-0.0180776 0.00592893 -0.0350311 -0.0222866 0.00661935 -0.0345397 -0.0204786 0.0069753 -0.0339082 
-0.0191957 0.00754547 -0.0350217 -0.0223174 0.0086903 -0.0345204 -0.0185784 0.00923856 -0.0347032 
-0.0221249 0.0111614 -0.0346402 -0.0202958 0.011129 -0.0345154 -0.018518 0.0112082 -0.0347516 
-0.0229045 0.013402 -0.0341275 -0.0214865 0.0127924 -0.0350402 -0.0177097 0.0133894 -0.0346401 
-0.0212964 0.014196 -0.0339301 -0.0193525 0.0140302 -0.0343023 -0.0231173 0.0151779 -0.0339859 
-0.0216679 0.0156442 -0.0349304 -0.0200576 0.0156748 -0.0341298 -0.0185124 0.0164682 -0.0345998 
-0.0216587 0.0174436 -0.0349305 -0.0199536 0.0175503 -0.0343627 -0.0228567 0.0185501 -0.0341678 
-0.0208741 0.0192033 -0.0342459 -0.0187402 0.0192023 -0.0349719 -0.0243073 0.000895703 -0.0331465 
-0.0221595 0.000901808 -0.0335943 -0.018794 0.000898799 -0.0332431 -0.0216063 0.0025918 -0.0333065 
-0.0178713 0.00234588 -0.0340154 -0.0243057 0.00391238 -0.0331466 -0.020244 0.00393735 -0.0333594 
-0.0224539 0.00405908 -0.0327019 -0.0181456 0.00455178 -0.0336914 -0.0250056 0.0054777 -0.0326216 
-0.0222955 0.00616414 -0.0327263 -0.0201982 0.00566848 -0.0327153 -0.0237562 0.00682279 -0.0335431 
-0.0187603 0.00663462 -0.0335318 -0.0245724 0.00848425 -0.0329476 -0.0228021 0.00818854 -0.0328728 
-0.0206518 0.00875769 -0.033813 -0.0190874 0.00832808 -0.0330349 -0.0235215 0.00974569 -0.0337085 
-0.0249217 0.0102275 -0.0326856 -0.0215718 0.0101879 -0.0332399 -0.0195251 0.0100567 -0.0332954 
-0.0177466 0.0102284 -0.0334611 -0.023901 0.0115014 -0.0334424 -0.0220233 0.012171 -0.0331536 
-0.0176142 0.0120218 -0.0334285 -0.020355 0.012693 -0.0336464 -0.0188426 0.0131759 -0.0328022 
-0.024487 0.0145297 -0.0330188 -0.0214662 0.0156202 -0.032849 -0.0183703 0.015052 -0.0332033 
-0.0238798 0.0169581 -0.0334538 -0.0221319 0.0172611 -0.0331479 -0.0192545 0.0167401 -0.0329246 
-0.0205609 0.0180128 -0.0327031 -0.0181092 0.0179997 -0.033753 -0.0242226 0.0192032 -0.0332023 
-0.0219172 0.0191906 -0.0327855 -0.0193549 0.0192055 -0.0332894 -0.0264119 0.000945337 -0.0314923 
-0.0246194 0.000896323 -0.0313641 -0.0229409 0.000991326 -0.0319914 -0.0211204 0.000898019 -0.0321303 
-0.0194176 0.000915659 -0.0315529 -0.0266293 0.00272963 -0.0313058 -0.0252956 0.00219382 -0.0324017 
-0.0234788 0.00269884 -0.0321165 -0.0217918 0.00282265 -0.0315189 -0.0201116 0.00237804 -0.0323364 
-0.018369 0.00281347 -0.0323568 -0.0250646 0.00361885 -0.0313407 -0.0264197 0.00479474 -0.0314895 
-0.0231337 0.00518354 -0.0314715 -0.0208087 0.00432241 -0.0317022 -0.0189952 0.00447972 -0.0321093 
-0.0176935 0.00572483 -0.0324184 -0.026151 0.00655849 -0.0317102 -0.0244083 0.00700265 -0.0318934 
-0.0211329 0.00747465 -0.0323219 -0.0194593 0.00704118 -0.0318267 -0.0253819 0.00902207 -0.0314345 
-0.0233676 0.00972143 -0.0319239 -0.0216821 0.00910288 -0.0318105 -0.0198944 0.00926045 -0.0317304 
-0.0179063 0.00920269 -0.0320006 -0.022026 0.0108796 -0.0316485 -0.0186101 0.0111606 -0.0321976 
-0.0252826 0.0124275 -0.0324031 -0.0237234 0.01148 -0.0316584 -0.0204471 0.0113531 -0.0324506 
-0.0235987 0.0130519 -0.0325137 -0.0208647 0.0131371 -0.031987 -0.0222983 0.0142184 -0.0320859 
-0.0200213 0.0145432 -0.0327144 -0.0263003 0.0149414 -0.0315826 -0.0232282 0.0157512 -0.0322954 
-0.020198 0.0159521 -0.0316178 -0.0252937 0.0161933 -0.0323996 -0.0180169 0.0161081 -0.0317907 
-0.0263492 0.0174963 -0.0315436 -0.0246823 0.0178568 -0.0321096 -0.0228835 0.0179644 -0.0316755 
-0.0258619 0.0192021 -0.0319441 -0.019754 0.019203 -0.0315441 -0.017863 0.0191947 -0.0322897 
-0.0277386 0.00129723 -0.0303292 -0.022423 0.000892477 -0.0302853 -0.0178984 0.000984116 -0.0305933 
-0.0238049 0.0023467 -0.030388 -0.0207512 0.00170855 -0.030571 -0.0192271 0.00263323 -0.0307914 
-0.0280806 0.00364639 -0.0300149 -0.0227503 0.0037972 -0.0303531 -0.0215731 0.00514896 -0.030301 
-0.0279663 0.00543403 -0.0301234 -0.0248141 0.00532398 -0.0308419 -0.0202536 0.00636748 -0.0303637 
-0.0186252 0.00574731 -0.0308894 -0.0280631 0.00722843 -0.0300309 -0.0253136 0.00752227 -0.0304481 
-0.0236894 0.00661339 -0.0302968 -0.0220114 0.00677321 -0.030925 -0.0268933 0.00808661 -0.0310859 
-0.0231806 0.00812139 -0.0311237 -0.0207751 0.00805842 -0.0306647 -0.0186436 0.00818907 -0.0307129 
-0.0268862 0.00994614 -0.0310852 -0.0242461 0.00999637 -0.0303879 -0.0225033 0.00955866 -0.030285 
-0.0254155 0.011099 -0.031197 -0.0208228 0.0101869 -0.0305078 -0.018705 0.0100787 -0.0306543 
-0.0270319 0.0118509 -0.0309691 -0.0210617 0.011987 -0.0306197 -0.0194181 0.012418 -0.0312034 
-0.0175695 0.0120851 -0.0310637 -0.0279404 0.0133813 -0.0301472 -0.0261671 0.0133973 -0.0306706 
-0.0243923 0.013257 -0.0309179 -0.0226177 0.0127994 -0.0310269 -0.0230205 0.0145219 -0.0304383 
-0.0211248 0.0137567 -0.0303273 -0.0189762 0.0141591 -0.0313038 -0.0245166 0.0150122 -0.0312959 
-0.0219027 0.015775 -0.0310898 -0.0272889 0.0161924 -0.0307425 -0.0255542 0.0163011 -0.0302436 
-0.0239491 0.0166963 -0.0309522 -0.021203 0.0174286 -0.0311307 -0.0187639 0.0177096 -0.0314808 
-0.0272563 0.0189278 -0.030771 -0.0255916 0.0192067 -0.0301667 -0.0240517 0.0192016 -0.0310955 
-0.021475 0.0192039 -0.0310514 -0.0182774 0.0192039 -0.0305259 -0.0263009 0.000891974 -0.0293267 
-0.0244792 0.000895487 -0.029577 -0.0194337 0.000896587 -0.0296631 -0.028966 0.00233808 -0.0291632 
-0.0271736 0.00243329 -0.0290546 -0.0255352 0.00240279 -0.0299155 -0.0220936 0.00241732 -0.0294034 
-0.0263259 0.00401287 -0.0298803 -0.0244412 0.00389032 -0.0296797 -0.0208332 0.00345564 -0.0301372 
-0.0291696 0.00460682 -0.0289547 -0.018556 0.00414067 -0.0300727 -0.0292084 0.00640968 -0.0289133 
-0.0262564 0.00599511 -0.0300084 -0.0235974 0.00534039 -0.0290316 -0.0265047 0.00759212 -0.0291091 
-0.0248325 0.00672526 -0.0289161 -0.0177188 0.00690769 -0.0298364 -0.0238488 0.00819414 -0.029458 
-0.0217323 0.00837453 -0.0291722 -0.0292304 0.00902763 -0.0289003 -0.0275777 0.00892898 -0.029652 
-0.0254467 0.00901904 -0.029484 -0.0197506 0.00906821 -0.0295966 -0.0283449 0.010551 -0.029767 
-0.0261397 0.0106626 -0.0296144 -0.028905 0.0121683 -0.0292228 -0.0269933 0.0121823 -0.0292102 
-0.0252167 0.0122029 -0.0297149 -0.0229513 0.0112769 -0.0300559 -0.0196129 0.0113493 -0.02977 
-0.0234793 0.0128663 -0.0294235 -0.0185078 0.0127632 -0.0296913 -0.0292689 0.0138786 -0.0288243 
-0.0247573 0.0146102 -0.029572 -0.028341 0.0150893 -0.0297715 -0.0265538 0.0148921 -0.0297499 
-0.0225411 0.0159213 -0.0294194 -0.0208011 0.0154153 -0.0297222 -0.0185963 0.0155241 -0.0301998 
-0.0213542 0.0172674 -0.0292885 -0.0198163 0.0168651 -0.0301209 -0.017506 0.0170698 -0.0303684 
-0.0286708 0.0173194 -0.0294471 -0.0268928 0.0175467 -0.0296392 -0.0247335 0.0177531 -0.0295702 
-0.0229701 0.017761 -0.0298907 -0.0186454 0.0179457 -0.0292981 -0.0289175 0.0191221 -0.029203 
-0.0271293 0.0192086 -0.0290043 -0.0238108 0.0191988 -0.0290215 -0.022047 0.0192035 -0.0293599 
-0.0202099 0.0186136 -0.029908 -0.0297134 0.000892671 -0.0284025 -0.0279189 0.000899834 -0.0284872 
-0.0251763 0.000894889 -0.0279271 -0.0229437 0.000945897 -0.0285732 -0.0211928 0.000897947 -0.0289804 
-0.0178559 0.000896344 -0.0287991 -0.0282143 0.00268771 -0.0275712 -0.0242745 0.00241263 -0.0286344 
-0.0202288 0.0024026 -0.0288146 -0.0184743 0.00254363 -0.0291634 -0.0300229 0.00329591 -0.0280688 
-0.0258466 0.00335815 -0.028275 -0.027416 0.00429473 -0.0284743 -0.0254335 0.00504948 -0.0287208 
-0.0241706 0.00405643 -0.0279116 -0.0221095 0.00436625 -0.0287745 -0.0202498 0.00443473 -0.0287517 
-0.0185806 0.00406184 -0.0282132 -0.030308 0.00557598 -0.0277615 -0.0273356 0.00608985 -0.0285753 
-0.0210833 0.0060225 -0.02881 -0.0190811 0.00573498 -0.0291578 -0.0174122 0.00549564 -0.0285306 
-0.0301315 0.00765861 -0.0279575 -0.022666 0.00686773 -0.0288476 -0.0199409 0.00740916 -0.0289316 
-0.018325 0.00701676 -0.0281518 -0.0281022 0.00768927 -0.028299 -0.0254792 0.00834774 -0.0278268 
-0.0203627 0.00884148 -0.0279256 -0.0177524 0.00862751 -0.029216 -0.0278401 0.00990869 -0.0281663 
-0.0239427 0.00926134 -0.0280176 -0.0297439 0.010794 -0.0283715 -0.0264817 0.0110654 -0.0278991 
-0.024482 0.0107889 -0.0287954 -0.022573 0.0102495 -0.0286334 -0.0207348 0.0104041 -0.0287303 
-0.0185601 0.0101905 -0.0288652 -0.0282999 0.0115673 -0.0276427 -0.0250934 0.0122093 -0.0278871 
-0.0233059 0.0118531 -0.0279492 -0.0218326 0.0122648 -0.0290214 -0.0202244 0.0120622 -0.02824 
-0.0301246 0.0125547 -0.0279571 -0.0259298 0.0135486 -0.0287372 -0.0304878 0.0142844 -0.0275722 
-0.0275629 0.0142119 -0.0283817 -0.024231 0.0137751 -0.0280774 -0.022203 0.014023 -0.0289227 
-0.0204323 0.013828 -0.0286727 -0.0187195 0.0143405 -0.0288618 -0.0296443 0.0156007 -0.0284655 
-0.0261012 0.0151938 -0.0280381 -0.0217299 0.0154115 -0.0278932 -0.0196142 0.0158369 -0.0284461 
-0.0290841 0.0170782 -0.0276072 -0.0275284 0.0162002 -0.0286211 -0.0257863 0.0169272 -0.0283726 
[...]
POINT_DATA 10000
FIELD FieldData 7
id 1 10000 int
6093 1084 110 546 9866 4461 1655 5137 4024 
5203 6768 1116 8668 367 3713 8416 6901 7686 
2120 8624 1721 9475 6230 8650 7231 9718 5521 
9890 3038 9858 4788 7138 5982 9249 8722 8080 
6729 1276 6413 1631 9113 4447 2137 6644 9238 
9672 8227 1450 5418 6412 6675 7009 3544 2453 
3278 9573 8922 6847 8726 9253 7286 2031 9311 
756 5037 9605 5566 9206 155 7536 1461 3968 
9066 9505 2997 2386 9958 9060 6026 3605 6753 
9104 8708 7265 3108 4432 6811 3458 6877 6017 
8062 9616 9870 5109 8784 8442 3583 5561 8465 
5924 5183 233 2584 6477 7947 395 9727 3709 
5548 8489 7269 9517 1609 1371 7529 5574 8856 
8459 9820 6737 9874 7641 9792 185 695 6221 
4780 6390 2852 8643 7862 1594 9761 8069 5493 
2392 8285 6351 7842 9599 9161 2294 9691 7690 
2246 8731 8081 744 5324 9917 516 362 6613 
9041 931 6703 9547 4393 2092 6025 9878 9899 
4066 7295 5718 4654 6973 5888 2368 9975 5486 
9770 2404 8811 8792 7924 8286 8597 8269 7152 
3409 6236 6693 5573 5302 5826 1454 7219 8262 
7721 8457 3676 9138 7173 1372 3777 3222 7028 
2739 6870 1470 4841 8375 8997 2712 6301 8507 
7965 5221 9919 8273 4797 2305 4122 9964 3260 
2327 5933 9516 1128 6371 7370 9799 964 5325 
5268 783 3858 7639 8672 7976 5710 3058 5565 
784 2620 7220 9059 7531 403 8254 5716 3737 
5258 723 7215 8161 5783 9089 5688 4058 8697 
8354 4961 7627 9525 8610 7097 7003 8209 6562 
7948 4402 1346 6662 6780 2412 3483 5171 6070 
7901 4162 9598 1950 7793 960 9585 170 9822 
6804 6956 6429 7621 8447 6807 8185 4958 7748 
9043 7447 4974 9468 6312 8205 9763 1405 2536 
3547 1599 6885 6589 7130 7703 9577 9824 1618 
5808 5728 9802 6055 6740 1439 7843 7281 7755 
4997 6558 1199 672 5187 5045 9027 5942 7354 
8358 7390 2159 1447 2472 9829 1575 1902 5864 
4041 8818 6151 3799 5699 8675 9445 243 8853 
1781 1191 2663 7049 2317 7760 7774 8288 1628 
6217 8049 2745 2844 9749 7643 5916 9464 440 
7218 6065 8166 2082 9197 8875 2189 6483 6941 
9399 7494 9969 9946 9523 5008 2061 5217 8192 
5472 7341 5854 6397 7915 7373 6642 3744 3881 
8408 7733 755 6509 9990 9061 4587 5081 7306 
8547 8473 1099 3775 6617 2553 2771 2870 9111 
9818 6779 9632 7766 8371 9514 1711 8707 7469 
3048 1566 6028 9655 6925 6750 6054 5524 3282 
6799 3601 9231 2153 6897 9277 1851 9708 9383 
6222 7395 6420 8608 9989 7917 9596 3717 8018 
5176 6764 6741 3851 6937 9329 6878 7713 7972 
9634 888 8848 7757 6378 8593 9029 9506 7352 
4172 1657 6376 9666 9228 6247 5967 5742 7393 
9730 807 6508 3835 6761 5329 1901 2469 9271 
317 6165 6457 4761 5839 6601 3678 4546 6290 
8510 4291 8306 7294 8558 2950 2435 8073 9160 
3648 5425 8823 4733 6580 9739 4257 9897 7945 
6944 5225 526 1808 4384 5743 6364 9819 8168 
6542 181 5616 4178 9385 7369 6182 9657 8827 
2361 4048 1583 9612 6075 5281 962 2926 6954 
3923 5298 4177 5544 8266 1860 802 9165 5812 
912 4710 9362 6328 2464 4633 9107 8139 8902 
663 5702 8864 5378 9847 4963 9427 757 313 
4670 8320 7869 8084 6672 6893 8535 7334 2045 
4285 472 378 8393 4255 9133 6140 1925 5886 
4814 1302 6181 9973 6839 5552 8140 5094 6402 
5673 7798 819 5737 7673 1025 7834 9664 858 
9508 7520 7788 9266 6044 9983 7175 8003 9742 
2498 9836 7302 9986 7126 7895 8879 8221 6694 
5785 8484 9925 9498 9398 8588 6350 6436 3927 
7250 3495 1877 7292 5167 5141 3316 3934 1007 
9775 4394 7538 2816 5797 5499 8584 3812 7631 
6711 2050 8212 649 790 4910 9901 9236 9806 
2506 3057 3073 584 882 3209 3524 1947 3665 
5372 7968 9372 9154 7016 8059 4027 1378 6862 
6938 2990 497 6923 6292 8796 1428 7870 7954 
6510 7646 8301 9077 5013 6803 805 3302 4504 
7789 6200 5270 792 1285 7137 9099 5692 8247 
7134 3140 1155 3502 4888 1297 5234 9738 694 
2952 1729 2805 1291 8237 2278 3646 99 3268 
7070 9078 8103 5664 5371 1045 1535 6659 9540 
1789 2201 9563 6607 7653 4222 568 9935 5211 
6566 5517 9477 3349 7141 5199 3534 1119 4603 
5964 9057 2986 5114 8992 2885 4608 2792 572 
5263 7563 8379 1482 4791 6846 8261 702 2587 
9904 8634 8155 6765 4971 1476 3813 8197 653 
6990 8296 1163 2417 6882 7150 6417 6 8475 
8957 7011 2408 2025 415 8679 5177 7763 5437 
5896 7428 950 4864 7472 7684 3636 1826 1077 
3291 8977 6708 7884 6275 4195 740 201 3272 
3972 8450 7629 547 1802 618 1937 847 7025 
5314 2501 4156 5277 9734 2493 814 682 2589 
1380 1584 7492 5923 1606 1659 3626 1317 9051 
7351 7874 4757 133 4191 1858 8390 965 812 
9640 7356 4448 4768 9462 1066 619 7912 9679 
4018 2818 4470 8065 551 7194 1747 2855 7988 
5755 7846 8717 9407 2196 2856 9603 6408 5505 
589 8225 2973 2184 3112 9025 6347 5525 8362 
1105 842 1823 5185 7195 6821 1592 3996 9771 
512 5605 6646 6831 1495 545 1498 2401 6106 
6987 4693 5285 6018 843 2345 8780 7530 569 
3682 4055 2032 1080 8523 500 599 6461 6451 
1264 6426 1913 7872 9095 8959 177 1232 4185 
6994 9793 7136 7935 3477 1295 8999 1013 7108 
651 4278 3925 1835 4529 2029 8198 3491 3734 
7048 9356 5603 1445 4743 9939 1805 8511 9740 
9643 1348 9257 8482 1726 1403 5905 4390 2796 
1160 2918 5004 6556 5634 4983 4523 5890 3630 
2984 4568 9188 6445 8860 4090 2375 2859 5939 
1807 3907 9237 9252 255 944 6282 8046 1733 
8491 2809 4753 221 3770 1791 6057 5035 2860 
4428 2128 2671 6320 9879 3814 9785 2991 8704 
7729 5259 2653 3121 1832 5697 6635 1108 749 
4241 9892 7952 1036 1260 6066 4187 4756 6743 
1041 4331 7201 9314 941 6964 9409 7315 9262 
2872 5735 5625 7276 2784 8079 6574 3715 4381 
7514 2129 4586 8392 4559 6704 874 1356 2769 
9221 3541 5155 3440 919 4672 7792 3701 8649 
3412 5656 2935 8544 7416 3000 580 2119 324 
7221 5422 4319 8058 8136 7555 5201 5736 5267 
833 1670 1742 613 2014 9093 5444 3105 9151 
1316 453 7240 5126 5049 5831 9474 6049 4438 
2690 6543 679 8738 8666 893 3788 8278 4676 
277 3004 1375 2179 3700 2621 8988 9437 5813 
1451 3995 4862 410 9235 2742 972 4547 2746 
5512 8941 4566 6133 8481 2830 5118 2181 993 
4941 7539 2431 8196 8728 8327 9781 8968 9393 
3586 6435 4452 9039 6515 1172 4893 975 4407 
2282 966 3780 1425 1778 5023 3593 7993 8970 
2234 4032 7502 2766 6875 9779 4360 6979 1975 
1507 3418 9678 6482 120 3884 3852 142 7191 
7998 8330 6638 6352 9174 2172 2988 436 3496 
2034 3090 7829 3368 340 4211 3832 953 6076 
7069 1775 8042 683 8858 373 4614 2042 2964 
6564 4641 637 1896 7257 2165 2727 7474 5002 
3773 7821 2057 1056 4130 4444 7463 9839 3484 
9309 3474 6710 4727 7956 1027 5226 2315 6859 
53 7727 8472 3988 6298 8091 393 8193 5384 
3191 1171 7681 2041 1184 1889 2160 2284 6196 
45 6099 1862 1873 1534 3716 3124 4728 38 
2985 6915 9813 9887 7043 5210 4001 49 4923 
6863 826 8419 7088 2440 3964 1643 7183 7046 
2947 6148 8283 7461 125 6624 9408 6270 6620 
2056 2350 6147 3115 1444 4883 145 3037 2094 
567 8435 8272 9430 1790 5077 5262 3068 2731 
6189 531 6777 9699 3785 4531 4796 4867 8199 
3240 9180 319 3445 1062 2679 8996 5250 9541 
6339 4782 3230 3398 1224 6211 3367 7961 8031 
2516 2496 7836 4580 1743 1238 8865 536 8743 
897 5818 2650 1385 8133 9905 1168 119 6158 
8143 3624 7701 4627 3174 3512 4681 4544 231 
4902 5810 9929 9490 1198 926 7779 7345 4707 
5315 903 1458 1883 9808 2180 8007 3581 776 
2611 6423 6389 6879 1941 1730 6443 2052 5690 
6388 429 5635 240 3903 7148 5463 6800 2143 
8305 3247 7103 523 6619 8476 2522 3718 3046 
7877 5159 2407 3805 4333 2909 1493 4765 4860 
7975 6063 2300 3562 3358 8462 2028 3890 9167 
5715 3769 686 4942 8659 4142 4662 1141 1072 
1400 1342 7378 2880 938 1622 7120 9070 8785 
902 636 936 564 657 4646 6789 1349 7982 
3662 7116 5734 2554 5320 462 713 2046 4311 
7486 7312 6467 9636 5663 4611 1872 7298 3392 
314 10 5237 6131 1357 4098 4957 3854 1058 
9102 76 4254 2036 4038 7168 6387 8172 3202 
2602 3979 2535 5391 2633 3198 3591 4350 3664 
5824 9760 6801 6615 2583 2629 1268 9026 5088 
5007 7840 1246 7297 1284 2319 5781 544 9388 
2708 787 6633 8940 9286 9737 1868 4809 8066 
8089 3657 2126 1149 8537 5828 9843 3879 4837 
8012 1389 7772 1837 711 3364 1185 5441 7871 
8979 9660 1804 379 1281 4159 8386 3920 2532 
8560 2095 3031 2500 6348 2925 2738 9136 9340 
3270 6972 5294 121 1662 5452 7860 1834 9674 
3888 3026 6195 8047 914 2846 7541 3886 8346 
4334 2895 2676 5360 6898 4280 1051 413 2606 
4274 4884 6997 7978 9146 3161 4351 8562 5599 
9988 5857 4589 3985 706 4671 793 3451 8240 
342 8463 1885 4575 7123 4549 4374 3733 8403 
3707 3066 1756 6177 6678 6960 6322 9755 8647 
3427 258 2497 2330 2223 4794 3311 6246 7317 
6986 7809 6202 6125 2325 8383 1022 3343 3924 
4861 2470 6238 8361 7858 6345 506 3341 892 
392 2669 2673 1731 5331 6291 2586 2780 4771 
948 9867 8730 7397 4496 1167 1540 8606 994 
715 9876 5588 5451 863 4950 6242 3321 1792 
6027 9807 3310 2572 5106 4617 1992 9489 7606 
9274 6725 602 8146 5851 7340 6480 4946 785 
4144 980 9713 8466 6128 1887 325 2027 3565 
7468 6623 7243 6297 8036 660 4948 498 8949 
7570 48 7110 2062 3476 4533 8847 2486 3378 
2158 5029 8118 6842 4759 735 2732 131 967 
3488 2649 6251 3619 4993 1725 4359 6883 7407 
7383 9512 1211 5751 2098 3006 2185 1843 3259 
4299 901 5317 9247 8814 4469 2930 6867 6909 
7060 9463 5740 4345 4367 4342 9109 4160 4484 
8302 8052 2837 7377 3373 323 5254 2972 3166 
6924 3250 2495 5516 6109 5415 5019 5248 1203 
2086 3317 31 3400 3162 855 8430 3029 5842 
343 900 6707 9386 9518 5576 8954 4429 366 
2810 8948 6742 1815 29 9370 9291 7075 391 
8054 4465 3935 4005 4488 3137 5044 2774 1282 
6119 4738 7802 8698 4762 6590 9186 6910 6321 
7102 5074 718 2272 1656 2692 3634 7612 9337 
2519 9422 6014 4335 890 2682 1667 5306 8890 
8807 1289 113 4077 8263 3403 28 8969 5937 
8325 7299 7685 2247 7208 3228 797 6611 8889 
2654 4189 1020 3841 1564 1560 1327 4275 558 
147 8208 3970 6341 760 866 8663 4552 8344 
2540 3448 9184 3569 8226 246 3558 1542 8691 
8339 7251 3953 8716 3297 4000 8132 6614 8010 
2461 1898 2465 2306 6340 8044 7355 8432 2198 
4361 6171 1423 5637 8314 9108 6488 4135 963 
3168 6524 5130 4415 957 475 4075 2147 3856 
9676 1129 3220 507 409 6961 8630 1934 4653 
4734 9073 8689 5121 5266 1751 2357 1650 8071 
3608 7820 1437 182 1893 2627 5887 1794 3720 
5709 6241 9015 6795 7099 78 9302 5732 7018 
3312 4074 2378 2932 7174 3537 2612 7256 5403 
7841 338 3829 6516 3304 4695 219 6087 7875 
5668 8944 229 3131 1596 1151 267 4483 5758 
9717 8291 7847 4279 2914 9885 3913 5014 4732 
6399 3846 2913 891 7519 8035 3695 742 550 
6127 9611 5491 7176 8734 3668 1822 4894 8331 
9152 5921 5587 4464 2059 1469 4679 9294 2956 
1986 92 2688 5643 9682 5947 9122 5449 8714 
179 1432 9105 195 6156 7882 8144 1354 282 
7166 3044 8953 9075 1788 1416 5945 7518 8549 
6932 8602 1265 2446 3699 5024 3287 4039 9305 
1668 3527 845 2033 9251 3375 2813 1023 3652 
4548 6763 8030 7868 7238 6006 3468 4321 2405 
3861 6373 3141 7232 3181 9587 7955 2148 8733 
4843 4372 3849 9269 4060 3217 422 3556 9461 
7496 5600 5669 8413 6199 3285 94 9953 9428 
3263 8991 4386 2262 1884 6621 4269 3898 304 
4956 1409 9996 895 8682 4295 1193 932 9668 
6521 8312 9417 5958 2741 339 4425 6982 8768 
6083 2168 3256 1630 693 2636 3095 6218 443 
39 9625 3764 4463 8119 8436 9900 6810 6285 
1455 1741 9861 6565 9918 631 925 2151 9487 
9076 249 2063 4136 9127 1396 4978 4094 6832 
896 4313 5104 6380 1522 764 747 3571 2072 
7810 5031 3333 96 1188 5432 7253 3045 5689 
7007 5998 6824 725 2212 1144 1718 3355 8925 
7422 8937 5759 2838 5833 590 5985 6052 6935 
4302 3710 2992 2103 9893 2259 5062 5113 2749 
8019 3673 5056 5593 6327 9159 9535 4471 2385 
7409 1125 8789 5469 6940 1021 9992 7106 478 
505 3234 1669 9569 9350 8891 1806 390 4545 
6045 5805 6600 35 2795 171 8620 968 976 
8843 5078 7745 4678 5260 9665 5733 2090 7711 
4913 2409 2154 9930 8220 386 2273 3893 1290 
9306 6653 3971 3281 7614 1121 5311 8051 10000 
5674 2427 3986 4562 4516 2693 374 4949 648 
1001 9338 6452 4183 4779 7797 486 3022 1939 
9324 2858 6830 6774 4933 4813 271 4467 1842 
150 3721 5438 6192 8501 5641 9394 5607 4708 
3921 4555 153 8480 8117 4441 3937 4035 1676 
8411 9744 6527 6916 7991 2254 6304 7121 8611 
4960 4288 581 2598 8791 9031 9706 3492 2753 
2874 1629 1197 6307 8275 6215 6805 5595 1205 
4811 5727 7401 5287 2941 9301 5198 9994 6971 
2127 6384 5760 1904 3275 3266 6657 4418 8471 
3319 7364 4998 5151 5015 9999 5898 5881 3611 
9347 9979 5609 5594 8727 532 7833 80 1621 
9635 4277 365 1178 1408 1871 9360 3703 9796 
228 3254 1261 7301 7611 5949 4248 703 2760 
6444 8600 7311 9050 1250 2118 6858 9441 8156 
420 1486 1722 3559 6895 7419 4808 1663 2110 
17 2539 3758 5312 1952 8396 9280 9045 6219 
8885 5182 7350 298 187 9617 3143 2303 5564 
7803 7196 8820 9101 4822 3724 2609 6272 427 
4735 978 5619 2290 1648 4306 6598 4322 7578 
621 7348 6308 5105 230 2229 4839 2339 3545 
8874 4106 5356 1833 9357 2381 8855 1715 2248 
1010 9531 8840 9926 9019 6609 2523 7089 3308 
3616 4101 3989 188 1364 8492 4109 7145 9526 
6904 3372 6366 3119 5991 9287 3067 6965 8572 
8388 556 3231 2295 8477 7692 9950 6478 5806 
375 728 2634 2976 7033 5239 1859 7213 6957 
5494 4188 253 5071 8398 2487 8751 8280 2460 
1251 6612 7211 4019 8267 3551 7001 969 5919 
4325 289 1894 6570 1750 5910 3977 4650 123 
7122 4166 73 3187 2337 5557 4785 1691 6583 
9670 4267 5907 2767 405 4776 7489 8943 9609 
1632 3781 5900 2274 3969 1115 8154 5761 9412 
1525 8323 4612 8033 4651 4986 8604 8088 9840 
2208 9993 8699 4434 5445 7374 9849 6149 1856 
1617 6535 9868 3526 3290 4821 8626 8418 7725 
9260 6818 2740 9279 3763 6407 8752 5487 5683 
1924 2648 7595 9495 8861 5874 5650 8098 1544 
2806 6168 1849 6735 2463 519 402 5459 5373 
5554 5410 1999 7987 4849 6596 5174 7333 2301 
8893 6959 2249 9447 3614 9153 1942 8888 2993 
9303 5041 7056 6843 5578 3023 923 3425 1503 
8985 59 97 8540 4666 2456 4598 4097 8328 
5981 5178 52 612 3008 9809 4699 2026 1239 
7761 61 1634 7558 8345 1672 5027 1085 5894 
3872 4268 4392 8519 9499 3005 7624 5569 66 
9695 786 644 4906 4858 6663 5338 281 4953 
6849 2954 2843 1336 2109 164 4139 4103 7963 
9481 8295 6754 3203 4353 909 7144 3264 5388 
8460 7671 3486 6118 7893 9720 9956 8165 7073 
9961 2174 3949 3464 9721 7603 8878 6860 8061 
6102 2354 2117 9063 5305 2905 1344 8213 5940 
7545 9558 1137 6439 8355 2395 6160 1169 7633 
4543 7861 2595 1046 2155 5644 2943 4264 7424 
5042 7509 5175 8641 5531 7321 3485 3947 328 
217 5700 7567 3315 5101 6494 9017 2857 7913 
7506 6294 8760 7640 4153 2418 1214 6277 3072 
3740 7041 8652 9503 6089 7198 8487 9289 4246 
1846 9230 2800 9004 4171 5153 5648 6415 4289 
4751 3430 6080 5622 8300 593 109 2231 5484 
7410 6084 7517 5095 8238 1900 7027 4363 6008 
7227 3877 778 3065 1744 9928 5343 6514 6981 
809 768 5511 7313 5154 540 5746 1031 7155 
3980 2116 2919 5992 8349 5739 4194 8422 4201 
7863 5902 305 4293 1514 2684 2211 8315 6185 
4842 6848 8900 2927 2420 3267 399 8102 8746 
5660 7296 5166 4619 5514 3546 4085 6840 7977 
8956 8554 5150 6630 3059 6267 5039 9033 6331 
7065 6787 8427 2916 4899 5061 8024 5860 9331 
9423 4823 1773 1963 2219 7890 6773 596 6269 
5207 2623 6733 7031 1136 2561 7744 5009 4585 
7329 8918 8753 5349 2534 1530 1491 4466 7036 
6186 7026 8479 2170 227 4125 7080 4212 6330 
3225 8200 5515 9735 7408 4437 4644 1529 7019 
8896 8050 7666 8838 6276 2131 7823 7754 3498 
41 1175 5694 3487 981 806 5632 64 6933 
9450 18 734 7192 7244 445 8736 3824 8715 
2150 4520 8702 5220 5698 933 1838 1824 1475 
347 9507 117 7254 2839 3158 6845 7794 9942 
6180 4638 1752 9014 1471 5914 8304 1749 6715 
5135 8569 7670 6073 6370 2277 6401 2725 8767 
514 3242 7521 8978 9323 7510 7165 1114 5282 
3622 2107 2199 940 9284 7245 7418 6188 1561 
2244 9486 9327 5093 5033 9240 9344 1705 4473 
3690 5744 6178 327 3811 7442 9351 6074 4881 
6227 7381 4076 2788 2563 7559 7623 4468 259 
2001 6111 7066 6208 8097 5777 5269 1487 1489 
9456 7674 7768 7000 3397 2425 7303 16 5340 
2675 3434 4601 4480 8321 1274 1078 3603 5172 
7274 9440 7637 1057 3033 384 1518 7936 7557 
1539 7163 7190 4067 6538 2608 3076 8826 2707 
5336 6144 5550 3672 4017 8961 9227 6892 7247 
7751 1589 905 4202 9470 286 5436 8008 7658 
8039 6855 7039 7916 6081 2204 6948 3960 4724 
8148 8356 6145 7705 3357 3125 5016 6491 8628 
4009 4330 3572 4541 5448 2250 8533 9496 5816 
5534 7347 6487 8520 7100 1286 1686 8264 8191 
4597 8645 8242 434 5582 3596 9669 9129 5686 
54 1123 4134 9053 6677 5934 5375 4063 9404 
2475 5231 8994 4127 7966 988 2829 4252 3193 
5771 9471 8293 796 766 2836 4973 9048 857 
4741 5112 759 3823 8025 9068 5518 1166 518 
1111 1305 9030 2336 3156 5944 3815 6326 6015 
5003 6726 3946 140 7078 4658 7400 8882 4479 
4635 6837 4869 5772 452 7604 5687 6354 7630 
8378 8095 4698 7154 8210 4454 9168 9330 7931 
9341 3589 1412 7813 7528 5844 3578 6770 7918 
7679 9429 7004 5446 4621 5431 7002 1538 2102 
4895 8124 5959 5962 6458 5677 6090 2783 1771 
5820 416 8516 3170 6713 1194 3869 8971 8793 
2081 3405 1050 6550 4982 2630 3401 2937 4800 
2714 312 9175 7981 6262 5989 1213 2384 194 
7992 7 2698 5508 1429 834 5676 1523 5973 
7067 6927 6679 4028 1358 5082 5490 9009 3928 
8563 1511 6314 1881 6379 9354 7964 209 6329 
4287 5979 6555 6988 6812 159 2197 4920 2876 
986 7864 8182 7596 6920 8834 5952 2890 3711 
6532 8546 5612 8585 1927 4179 3236 8557 9424 
1548 6029 1322 4755 4766 4925 8676 6772 7565 
9513 8613 5780 1075 7775 8654 646 939 1666 
2373 3128 8658 6336 6851 5997 3631 2243 5657 
5202 7402 4706 4713 5261 664 9396 9860 6243 
5026 3300 7177 4904 1785 8153 7537 7826 6302 
1827 7831 5138 4385 736 275 6561 71 9560 
5330 6375 4799 2884 2664 935 8705 2260 3683 
5292 6712 105 2666 3696 8542 3497 575 8894 
3152 1817 3385 1800 3261 9823 4121 5542 1645 
6966 4506 8381 4031 1779 929 9784 2286 5630 
6343 5170 7258 5971 7695 3568 3159 1237 5867 
8425 8502 5974 7480 6628 5380 6476 3216 8816 
5570 7548 7363 1989 7923 6194 9292 6154 1906 
753 143 6489 3478 3783 8232 5721 4820 8113 
9361 5342 894 5222 3454 3889 4865 5930 4300 
2588 4263 3142 910 2558 9413 7200 5685 8111 
4626 762 6844 2730 295 7532 8721 2628 1032 
692 9434 6228 5366 2205 4784 708 2238 6881 
5651 2302 9845 817 6325 2607 1345 1459 5895 
1604 5568 5584 4215 884 2145 5738 4184 9139 
3475 4631 1127 3803 5752 9190 4389 2068 751 
3383 2581 906 8683 3582 4851 916 2030 3910 
9418 8455 7738 1150 4204 8527 8911 9250 6223 
8695 4749 7652 1157 2245 9715 6113 7662 5251 
7113 2121 3362 3129 2079 7778 5972 6464 9201 
1879 144 8831 204 4777 2908 3482 1201 5489 
169 2236 7582 292 6996 6153 1069 3036 5295 
3499 7696 2565 3857 2893 763 4377 9482 6673 
1916 5961 9268 8790 2526 4457 9308 47 4205 
5918 2402 1468 3579 223 8638 9224 8276 2374 
408 6469 6245 4852 3150 4489 9349 2637 459 
5092 2097 1398 2999 364 2382 8175 4857 1689 
1005 4093 752 5381 8440 1436 1452 804 6983 
6887 2448 1960 2548 3391 4876 5478 8766 1993 
2389 617 2808 3438 3871 6254 1980 302 2491 
278 2379 6815 3697 8157 2915 6138 4316 7900 
1784 3106 2428 2326 5703 8038 8835 6687 885 
4435 2331 9300 9333 6599 7953 455 1402 6569 
496 4870 4173 6632 1940 9438 2275 1044 6640 
4258 8194 5803 4406 5278 4155 1244 162 4798 
3876 4773 2071 730 5832 4256 245 1739 2012 
6952 3345 3099 4512 4069 2842 1 502 7079 
4485 1652 4684 1301 176 4099 4905 3576 4577 
9081 3018 3386 4346 2967 4304 2748 4907 3538 
4931 2394 1526 737 2321 2723 5701 5233 553 
1043 1217 4499 3419 527 1275 836 2566 2360 
3426 8618 5079 7851 741 2388 2632 9369 4804 
871 1619 254 3505 4511 974 659 5562 3868 
8370 5540 3806 1765 5001 928 638 37 141 
5341 2903 1377 149 1706 3050 3344 3148 4827 
1202 7209 2307 7368 3950 3147 2955 2849 163 
1912 1312 3423 3063 1841 2280 4673 2703 154 
4037 3390 3040 4004 5059 3334 3494 419 3472 
4677 3035 8509 3396 4460 8859 5714 3518 2162 
2524 772 1318 2562 3493 7739 4886 3298 1182 
4831 3429 3361 6404 7327 3394 4873 1183 3207 
8930 3301 6978 348 4760 9 1271 4233 9117 
7731 5798 5005 3880 4697 1661 2868 1324 2933 
2605 4682 2807 2736 7453 3606 1382 4660 7497 
3307 6658 7564 2851 2047 1921 1600 4089 1434 
839 1068 2667 779 3756 2615 1649 2149 1505 
5224 947 2635 3024 3194 1528 2883 3328 1603 
3839 1374 4217 585 3265 4792 3786 322 1533 
4663 5938 3273 9226 124 334 2803 853 570 
1145 3663 3714 2702 6902 4636 3649 2593 2114 
998 4494 4687 1813 1513 4226 5571 4281 670 
3342 1453 3470 3645 1903 3079 3424 1173 2697 
3153 6311 2060 2393 1300 2549 4711 7225 8173 
2786 431 1651 495 4510 2471 1059 1664 5 
2995 1970 3408 4243 3961 3952 4918 3725 2503 
1414 13 7261 977 3075 2462 3837 4686 3500 
2445 26 1623 2104 4349 1065 3042 4718 4669 
3443 4879 401 1738 23 3453 769 1321 3779 