# vtk DataFile Version 4.2
Generated by LIGGGHTS
ASCII
DATASET POLYDATA
POINTS 10000 float
-0.018952 0.000898631 -0.0364696 -0.0183016 0.00270457 -0.0368089 -0.0183076 0.00458244 -0.0367992 
-0.0179502 0.0108675 -0.0369798 -0.0180317 0.0127619 -0.0369402 -0.0188874 0.0146239 -0.0365043 
-0.017784 0.0159341 -0.0370522 -0.0185082 0.017543 -0.0366965 -0.0191481 0.0191958 -0.0363725 
-0.0203279 0.00248166 -0.0357329 -0.0212746 0.00390616 -0.0351675 -0.0177214 0.00363167 -0.0353936 
-0.0199427 0.00482916 -0.0359475 -0.0191916 0.00641564 -0.0363313 -0.0214103 0.00727549 -0.0350868 
-0.0195842 0.0081609 -0.0361334 -0.0201073 0.00995882 -0.0358563 -0.0183778 0.010171 -0.0353856 
-0.0209752 0.0114498 -0.035353 -0.0195143 0.0120893 -0.0361748 -0.0184518 0.0133575 -0.0353065 
-0.0202988 0.0137753 -0.0357479 -0.0196997 0.0161672 -0.0360691 -0.0198238 0.0177419 -0.0352108 
-0.0208526 0.0192013 -0.0354206 -0.0230977 0.000899276 -0.0339951 -0.0216609 0.0014503 -0.0349345 
-0.0199513 0.000896875 -0.0349731 -0.0207088 0.00265394 -0.0339953 -0.018607 0.00207518 -0.0351528 
-0.0226237 0.00283445 -0.0343097 -0.0193905 0.00363275 -0.0347319 -0.0226599 0.00582598 -0.0342856 
-0.0209142 0.00559695 -0.0346551 -0.0188143 0.00541292 -0.0346819 -0.0196757 0.00700981 -0.0347092 
-0.017881 0.00694233 -0.0347568 -0.0227347 0.0085362 -0.0342462 -0.020659 0.00882789 -0.0345833 
-0.018869 0.00865194 -0.0345586 -0.0220552 0.0101445 -0.0346836 -0.0196884 0.0107549 -0.0343067 
-0.0232165 0.0115876 -0.0339165 -0.0182152 0.0117496 -0.0345461 -0.0233554 0.0136251 -0.0338207 
-0.0220464 0.0127481 -0.034694 -0.0198186 0.0125546 -0.0344634 -0.0217082 0.0145086 -0.0348998 
-0.0200731 0.014465 -0.0341157 -0.0225604 0.0159965 -0.0343539 -0.0207842 0.0160321 -0.0346389 
-0.0185701 0.0154559 -0.0348623 -0.0231263 0.0176597 -0.0339621 -0.0216261 0.0176101 -0.0349525 
-0.0178108 0.0175264 -0.0349788 -0.0223827 0.0192075 -0.0344799 -0.0189741 0.0191992 -0.0345893 
-0.0211164 0.000895776 -0.0333182 -0.0193203 0.000897996 -0.0332898 -0.0241118 0.00235687 -0.0332807 
-0.0189552 0.00265859 -0.0332848 -0.0238411 0.00417939 -0.0334815 -0.0219619 0.00433102 -0.0335642 
-0.0199245 0.00474 -0.0334216 -0.0180136 0.00413282 -0.0336987 -0.0250361 0.0055309 -0.0325935 
-0.0212478 0.00584715 -0.0329137 -0.0192917 0.0063928 -0.0330707 -0.0175962 0.00580989 -0.033218 
-0.0239522 0.00671223 -0.0334024 -0.0215435 0.00756741 -0.0333216 -0.0249104 0.00881178 -0.0326972 
-0.0199372 0.00830463 -0.0330291 -0.0180843 0.00779145 -0.0331904 -0.0237063 0.00989211 -0.0335748 
-0.0209352 0.00979766 -0.0330956 -0.0249156 0.0108867 -0.0326856 -0.0184185 0.0105839 -0.0330471 
-0.0214172 0.0114454 -0.0336242 -0.0198543 0.0116735 -0.0327781 -0.0251146 0.0126684 -0.0325422 
-0.0210228 0.0131812 -0.0332898 -0.0178032 0.0125378 -0.0329804 -0.0220642 0.0146922 -0.0331476 
-0.0183802 0.0140923 -0.0336744 -0.0244314 0.0156907 -0.0330574 -0.0196224 0.015972 -0.0332505 
-0.0177929 0.0163246 -0.0328584 -0.0245812 0.017926 -0.0329419 -0.0207282 0.0173756 -0.0334162 
-0.0189572 0.0176013 -0.0336038 -0.0219837 0.0185343 -0.032872 -0.0205109 0.0192008 -0.0336561 
-0.0189158 0.0192049 -0.0327988 -0.0252235 0.0010211 -0.0324526 -0.0234691 0.000903118 -0.0320875 
-0.0217303 0.000910942 -0.0316314 -0.0177728 0.00135071 -0.0324981 -0.0266679 0.00268828 -0.0312691 
-0.0248875 0.00245262 -0.0313605 -0.0224436 0.0022844 -0.0326076 -0.0206801 0.00227208 -0.0322497 
-0.0256228 0.00389499 -0.0321406 -0.0221244 0.00390154 -0.0318269 -0.0203268 0.00398304 -0.031842 
-0.0239066 0.00415706 -0.0316888 -0.0181981 0.00412161 -0.03192 -0.0264466 0.00565891 -0.0314672 
-0.0229472 0.00542011 -0.0325272 -0.0255615 0.00721599 -0.0321839 -0.0239547 0.00684895 -0.0314673 
-0.0221876 0.00693543 -0.0317737 -0.0203767 0.00689679 -0.0317342 -0.0232484 0.00814005 -0.032575 
-0.018902 0.00797657 -0.0316064 -0.0262438 0.00922079 -0.0315722 -0.0224834 0.0097179 -0.0321872 
-0.0195433 0.00969808 -0.0319628 -0.0264028 0.0119258 -0.0315035 -0.0218354 0.0116028 -0.0318963 
-0.0232832 0.0125359 -0.0323932 -0.0211258 0.0132058 -0.0315035 -0.0192391 0.013243 -0.0321641 
-0.0258747 0.0142541 -0.0319315 -0.0241066 0.0141244 -0.0322479 -0.020422 0.0146087 -0.0323664 
-0.0267228 0.0157345 -0.0312325 -0.0249305 0.0156855 -0.0313365 -0.0227596 0.0150778 -0.0315354 
-0.018672 0.0149461 -0.0321234 -0.0258498 0.0171311 -0.0319525 -0.0240994 0.017277 -0.0313376 
-0.0229467 0.0165641 -0.0325523 -0.0212319 0.0161924 -0.0321627 -0.0201434 0.0175534 -0.0317243 
-0.0183664 0.0177336 -0.0319125 -0.0256505 0.0191216 -0.0321175 -0.0235276 0.0192013 -0.0322354 
-0.0208429 0.0192042 -0.0316548 -0.0279409 0.000957939 -0.0301461 -0.026446 0.000904225 -0.0311416 
-0.0247802 0.000896214 -0.0304689 -0.0229914 0.00100366 -0.0303567 -0.0199337 0.000894878 -0.0313765 
-0.0182329 0.000897835 -0.0308039 -0.0280215 0.0027549 -0.0300683 -0.0231488 0.00270042 -0.0309688 
-0.0213958 0.00253123 -0.0306305 -0.0195408 0.00266232 -0.030913 -0.0176511 0.0025764 -0.0311899 
-0.0256081 0.00381268 -0.0303483 -0.0273086 0.00427454 -0.0307101 -0.0278879 0.00591106 -0.0301905 
-0.0248008 0.00542124 -0.0307797 -0.0230095 0.00550659 -0.0307332 -0.0212802 0.00535435 -0.0311896 
-0.0193285 0.00545472 -0.0315148 -0.0256988 0.00694979 -0.0304088 -0.0272299 0.00782525 -0.0307877 
-0.0247681 0.00839654 -0.0309564 -0.0229873 0.00861082 -0.0308639 -0.0212331 0.00836858 -0.0311637 
-0.0177829 0.00965477 -0.0316169 -0.0273559 0.010458 -0.0306831 -0.0255484 0.0105955 -0.0306479 
-0.0238334 0.0101793 -0.0310942 -0.0210791 0.0101571 -0.0311527 -0.0243673 0.0118935 -0.0311117 
-0.0201989 0.0117267 -0.0310228 -0.0184952 0.011634 -0.0315889 -0.0271534 0.0134065 -0.0308164 
-0.0254058 0.013205 -0.0304643 -0.0229859 0.0129504 -0.0306722 -0.0197122 0.013343 -0.0304082 
-0.0176901 0.013271 -0.0312574 -0.0240505 0.014383 -0.0304708 -0.0211744 0.0148101 -0.0306998 
-0.0198061 0.0158998 -0.0311081 -0.0220135 0.016392 -0.0305632 -0.0179172 0.0161951 -0.0310693 
-0.0272034 0.0174196 -0.0308088 -0.0224576 0.0179967 -0.0312332 -0.0270274 0.0192017 -0.0309637 
-0.0253228 0.019202 -0.0303557 -0.0235281 0.0191809 -0.0303873 -0.019108 0.0191994 -0.03102 
-0.029229 0.000896113 -0.0289007 -0.026294 0.000904277 -0.0293492 -0.0210545 0.000898111 -0.0299687 
-0.0293121 0.00269031 -0.0288197 -0.0259639 0.00265199 -0.0290261 -0.0242884 0.00239907 -0.0296172 
-0.0183952 0.00222352 -0.0296012 -0.0225145 0.00399473 -0.0298897 -0.0286594 0.00443856 -0.0294687 
-0.0207195 0.00409053 -0.0300425 -0.0188981 0.00422247 -0.0302698 -0.0262383 0.00538269 -0.0297101 
-0.024186 0.00589276 -0.0291539 -0.0221385 0.00564065 -0.0291652 -0.0199593 0.00573077 -0.0298526 
-0.0180249 0.00542543 -0.0292599 -0.0287273 0.00728574 -0.0293906 -0.0268743 0.0069248 -0.0290452 
-0.0246772 0.0076202 -0.0290869 -0.0230739 0.00710643 -0.0298822 -0.0213236 0.00685081 -0.0302058 
-0.0183688 0.00678885 -0.0303745 -0.0219939 0.00837308 -0.0291826 -0.0198532 0.00787463 -0.0300849 
-0.0183149 0.00880163 -0.0301285 -0.0283033 0.00898332 -0.0298052 -0.0265134 0.00914508 -0.0298018 
-0.024765 0.00937812 -0.0294542 -0.022927 0.00985485 -0.029573 -0.0211456 0.00998548 -0.0293663 
-0.0275299 0.0103053 -0.0288599 -0.025789 0.0107337 -0.0288711 -0.0241602 0.0111528 -0.0294947 
-0.0190946 0.0104382 -0.0303864 -0.0173945 0.0102802 -0.0296954 -0.0283524 0.0116186 -0.029757 
-0.0266032 0.0120848 -0.0297281 -0.0221521 0.0113706 -0.0301534 -0.0201406 0.0118467 -0.0292377 
-0.018464 0.0122279 -0.0297572 -0.0285328 0.0133895 -0.0295963 -0.0235875 0.0130036 -0.0289822 
-0.0214407 0.0129694 -0.0297602 -0.0258179 0.014868 -0.0299072 -0.0225011 0.0144047 -0.0295578 
-0.0184614 0.0146295 -0.0303713 -0.0291397 0.0150644 -0.0289898 -0.0276162 0.0148929 -0.0299268 
-0.0206962 0.0159764 -0.0294142 -0.0283515 0.0165199 -0.0297624 -0.0257564 0.0166633 -0.030036 
-0.0237088 0.0160944 -0.0300373 -0.0189174 0.0161823 -0.0295756 -0.0293655 0.0176056 -0.0287576 
-0.0244257 0.0178079 -0.0296551 -0.0226433 0.0176728 -0.0294817 -0.0208324 0.0176579 -0.0300663 
-0.0183788 0.017818 -0.0301236 -0.0283448 0.0189583 -0.0297625 -0.0266053 0.0192023 -0.0290983 
-0.0217552 0.0192041 -0.0301059 -0.0200648 0.0191999 -0.0295073 -0.0303944 0.00092058 -0.0275396 
-0.0246052 0.000898309 -0.0286809 -0.0227649 0.000901615 -0.028576 -0.021014 0.000899181 -0.0281701 
-0.0194828 0.000892106 -0.0291069 -0.0176541 0.000899527 -0.0286356 -0.0276397 0.0018212 -0.0285736 
-0.0245955 0.00251406 -0.0278476 -0.0227974 0.00269718 -0.0286552 -0.0208724 0.00268623 -0.0289248 
-0.0192945 0.0025307 -0.0280819 -0.02728 0.00377144 -0.0285301 -0.0176485 0.00368686 -0.0288853 
-0.0289218 0.0040836 -0.0277298 -0.0260157 0.00496561 -0.0279823 -0.0246064 0.00416184 -0.0288974 
-0.0217342 0.00405365 -0.0281447 -0.019622 0.00421411 -0.0286281 -0.0296558 0.00554638 -0.0284644 
-0.0278036 0.00555394 -0.0283526 -0.023267 0.00702991 -0.0280918 -0.020841 0.00717312 -0.0285108 
-0.0190726 0.00697517 -0.0287351 -0.0299189 0.00786094 -0.028173 -0.0276747 0.00769338 -0.0276342 
-0.0261162 0.00834407 -0.0282502 -0.0235523 0.00881184 -0.0282546 -0.0183717 0.00862231 -0.0283461 
-0.0286364 0.00914835 -0.02805 -0.0207297 0.00889041 -0.0280059 -0.0194818 0.00999431 -0.0286863 
-0.0294325 0.0106403 -0.0286855 -0.0226977 0.011249 -0.0284567 -0.0280497 0.0120853 -0.028049 
-0.024576 0.0114968 -0.0277873 -0.01876 0.0115414 -0.0281259 -0.0297641 0.0125466 -0.0283409 
-0.025352 0.0128423 -0.0286877 -0.0215403 0.0127194 -0.0279925 -0.0197844 0.0131119 -0.0280152 
-0.0176153 0.0132942 -0.0285959 -0.0285566 0.0137996 -0.0278602 -0.0269473 0.0136689 -0.0287891 
-0.0255741 0.0143571 -0.0277541 -0.0241625 0.0148577 -0.0287465 -0.0209076 0.0143345 -0.0287094 
-0.0190989 0.0146251 -0.028696 -0.0270006 0.0160212 -0.0286723 -0.0224065 0.0160314 -0.0287978 
-0.0304723 0.0162026 -0.0275871 -0.0286696 0.0162836 -0.0277575 -0.0241732 0.0166097 -0.0283387 
-0.0176104 0.0164434 -0.0283741 -0.0275556 0.0177288 -0.0287061 -0.0257776 0.0176057 -0.0284899 
[...]
POINT_DATA 10000
FIELD FieldData 7
id 1 10000 int
6642 602 5174 1276 2435 263 1899 9667 1138 
9722 5982 2588 1479 78 9029 613 144 9588 
8350 931 5181 6906 9133 9965 9568 744 5209 
862 8009 155 4442 7860 3721 9818 9189 8377 
7937 4797 2269 7827 5275 9590 8737 6753 2868 
8493 7575 7924 3463 1447 5188 7130 3434 6536 
9681 950 8444 7712 5464 3247 6146 28 1372 
4591 1567 3881 6121 8958 9995 8933 1084 2368 
7391 9683 389 7472 2679 634 5626 6637 4066 
2120 8632 7078 9733 9975 2700 397 944 9573 
1836 9144 464 5883 2159 9150 750 3180 2775 
7974 296 4703 8416 6768 6728 6655 6287 737 
9890 7011 8524 9537 6395 3080 7508 6378 367 
9205 7447 5666 1721 7149 6828 5692 8192 7318 
9093 2022 9725 7022 9799 1280 857 6541 4538 
1263 7730 8003 2328 4811 4329 4145 8433 9832 
8397 6026 5137 8857 9147 4951 6746 1057 7240 
9035 8359 9479 9272 7286 3349 9741 6162 8004 
2108 5406 3776 1424 1636 9465 2981 3348 7009 
1159 9880 9844 8792 9972 767 7361 6398 1919 
3440 8952 8797 5573 9233 2365 3676 1165 8779 
2539 5785 1004 8412 8545 7049 8931 3224 61 
107 2520 1870 7431 5561 6737 3637 7117 30 
5299 9524 9827 9600 2818 1517 4241 9098 3684 
2997 110 3998 858 6553 2160 5119 9220 5591 
2452 9897 6744 5186 8508 1585 9454 3858 3949 
1866 2464 2392 9983 4397 2404 9831 8372 6602 
9791 399 3064 4990 4326 2498 6010 3469 7072 
3077 3666 6667 4854 6011 6362 2008 5102 726 
225 5566 9607 9762 1361 4316 3777 4846 961 
8486 1939 809 5021 3943 6759 8856 9415 85 
4067 9234 5293 6129 9943 4671 4674 8579 8532 
9148 6381 9672 5928 611 4534 3219 9917 9571 
4384 2767 4261 9911 6048 7191 4935 301 2858 
3085 7231 630 3754 5729 9718 1946 4011 685 
4273 9481 855 788 5618 7462 9582 927 5920 
3291 6943 5409 7028 9814 180 6239 4566 8541 
2005 5428 7239 7538 3483 3237 6757 9060 8758 
4461 4668 7693 2872 4371 4613 9659 3412 7651 
9780 5140 2118 9043 2305 7132 6649 11 4463 
4742 290 4819 3761 3458 7969 9998 8744 8202 
3836 5196 7842 2820 5728 3731 1782 1974 360 
1464 5794 3544 9707 8140 6034 1559 9320 7215 
6578 3176 1417 3765 8504 3713 7626 5557 3744 
5955 4841 7661 9239 584 2553 9957 1536 920 
8139 6930 9595 8292 291 2549 3415 4567 3894 
9359 2735 7568 6068 2828 6401 3048 6811 1681 
1777 6956 8624 9528 3460 9440 960 7892 7927 
2611 9385 9134 7495 9866 9565 2902 3502 7535 
3511 5378 186 4088 2035 4472 3908 9115 4934 
3717 2453 8233 4914 6141 1558 8257 3043 21 
644 8428 7222 7055 9804 9114 2843 2822 4789 
666 942 6721 5203 6749 9539 7236 5548 3236 
9767 4984 4431 8517 3735 20 2577 7907 1378 
8209 1660 7477 1550 8228 1426 2327 9156 2137 
1975 8697 6871 4449 3179 9729 6975 9967 7189 
2153 9521 380 210 2386 7437 5800 6893 1570 
9179 8689 632 444 1379 1112 181 4115 7450 
5750 5217 4539 1527 2875 2799 9759 6187 5374 
3743 5906 6654 3574 3658 5193 1509 77 7159 
2821 7181 8131 9346 9747 8287 1781 2099 9048 
6091 7133 5659 5334 3151 6077 2521 3918 8765 
987 7737 2960 5139 1544 5397 250 4356 5815 
9653 9452 1454 493 6577 6384 5466 9056 7158 
7717 6873 3320 9981 8996 2538 7770 1512 6907 
5283 7217 9731 403 3278 7324 382 4869 574 
2215 2826 7709 5822 1168 7226 2638 1808 8464 
6738 3239 7456 6104 9835 3015 1698 7259 7005 
9566 9853 5142 1842 831 8227 9506 5783 2517 
6107 2485 892 8726 2797 1758 9473 2032 559 
1769 3720 8506 8329 5162 2164 6439 9691 1538 
8289 8215 4815 8406 1756 6508 9850 4730 9511 
1713 815 8617 137 4590 683 6901 7058 7050 
8764 6694 272 2555 6116 8485 2052 5524 6589 
481 9711 2264 9955 1787 8725 6379 1594 3108 
3922 4404 9561 8152 842 2536 7175 9483 3146 
2417 7057 6778 3716 9475 4297 7776 7210 639 
5631 3829 5688 4521 8437 4736 5359 4940 3846 
1612 3602 9000 9007 4587 6955 9610 8566 5482 
5120 3263 4269 4148 4162 999 3528 8520 8234 
6441 8163 4545 7546 5440 6928 3136 9326 8685 
4824 801 1796 8414 2317 8080 7283 7388 7285 
1902 6903 7420 5096 90 9825 8471 8185 2201 
1543 1702 973 5104 9498 6549 5393 7707 2658 
2870 3692 8771 1728 8811 3564 3919 2947 1351 
6013 8016 9809 5999 2151 7784 4436 2940 5252 
4888 2311 738 3370 8224 6138 4160 1693 2287 
875 5579 6465 5129 8869 1988 4650 3493 4518 
6142 9403 9315 1525 3222 6172 2429 236 4077 
1068 757 7211 2256 477 7337 6814 8848 6572 
716 5243 8529 3131 4407 787 898 2348 1037 
7062 2262 4222 3260 6827 5662 7068 2208 5678 
6680 8277 2741 6350 9562 4398 6424 2423 5400 
807 1410 1384 4505 9881 1615 2740 4529 7440 
9480 7544 7675 4470 9945 1616 6741 5268 9932 
4357 2273 8262 8830 5065 2529 3930 4039 8650 
6020 2877 4573 5297 2371 8328 9401 3139 3610 
1861 8673 6419 9131 5156 9387 3336 5011 4107 
6702 5178 1073 2418 9925 5037 5255 4298 2911 
7970 2838 7174 5091 3 7105 3487 3804 7979 
3134 4988 9404 1023 6151 9649 2527 3728 6399 
9289 8699 5183 9259 1816 6319 4302 1885 2409 
5081 9800 5072 5821 5262 2347 8932 7144 7757 
3001 9764 7571 3727 8349 4350 8876 776 6003 
5367 5503 7960 3844 4188 3762 9749 165 4780 
8250 5913 5787 8960 4838 6253 8364 4778 8597 
3605 6675 3820 5046 9805 8521 4432 921 5784 
7096 3281 9819 746 7241 7795 5908 4717 1242 
5656 1174 310 6207 426 2756 7526 637 7373 
756 385 1943 2942 5309 5296 672 3351 6473 
198 9397 6886 647 52 4555 9888 3232 7325 
9576 6947 6836 7941 1185 1368 4664 4953 9547 
548 4527 2442 2812 835 5516 2354 2092 7336 
5115 3655 8492 4732 1239 1805 8217 5439 6936 
7051 9875 454 3971 8447 4447 7967 5519 4905 
6320 9626 707 9113 9083 3672 8708 7996 992 
8449 5325 2852 1200 8216 556 2176 372 3887 
511 5931 3510 7020 5683 706 9468 5808 8879 
5693 4348 5716 4123 9645 2 7406 1456 9478 
9657 8784 8254 1488 9071 592 8171 4359 9001 
2246 8987 9466 3667 8547 7755 6477 723 4770 
5871 615 2882 7556 4213 7528 7207 5967 7281 
8342 1759 2795 192 7269 2031 733 2195 6627 
9517 5086 623 2377 390 3141 9505 6729 2977 
4600 7833 343 6217 3346 6181 8531 9364 7214 
6576 6242 7295 3827 823 742 1587 288 4594 
704 4224 856 9905 4353 5123 8002 3354 4113 
3929 4319 1596 5052 7636 2270 4296 9238 8298 
669 369 896 7470 4744 9377 9075 4504 5457 
6969 4992 5849 3749 8950 388 7721 8687 7862 
6385 8514 7609 765 8552 134 3358 4794 2396 
7769 6847 9604 6634 6701 2671 3384 6265 1697 
4288 9017 3211 3972 1316 8872 2105 2928 7649 
2961 6303 6870 4478 1818 5559 7654 7991 1906 
4761 676 7228 5286 868 7845 8183 8323 4452 
9111 1712 1907 5485 2077 6461 9202 233 9005 
722 8116 4583 3432 8332 1303 9314 4310 5212 
8400 1117 701 2231 8306 7137 3049 2253 2473 
3479 2542 5496 7747 1011 136 269 555 8643 
9882 4445 7647 4484 1075 3688 1655 8452 5903 
5969 9218 783 7255 168 848 109 5298 924 
6951 7225 2620 318 2672 9002 4317 873 8230 
8229 1353 1045 5045 7562 8441 5924 6714 8899 
3680 1327 4883 3240 5569 8668 2447 1147 8684 
2576 5912 8588 5324 6562 3442 5907 2805 1467 
5829 2285 6166 4864 4393 1234 7947 8348 2083 
6449 7806 2152 2178 8263 7667 4091 3660 5665 
116 8530 9200 7138 9026 2474 4176 8290 3227 
159 5171 6780 6301 3942 9564 1825 1161 3073 
7218 9472 8429 4859 8605 1542 6974 6392 1917 
2188 3843 1364 2519 8285 7223 8745 606 5443 
626 8098 8146 6661 3561 2088 1180 7861 1094 
5422 3150 7126 3542 7252 2557 3768 2251 5725 
4010 7802 4936 5131 222 6699 3620 3885 3017 
494 5826 550 350 6664 8844 2778 3127 2044 
3052 1930 5602 6370 6883 9494 4119 2214 7879 
6095 1291 8101 4507 4535 83 7104 1731 3770 
7479 534 5757 7267 3781 5864 8273 6474 1608 
516 2142 4169 7332 2113 7254 8610 4910 6994 
538 6353 9834 9467 1461 8788 2202 9840 1860 
6510 4402 4378 7045 6276 7441 4312 7136 7395 
1763 1886 5094 9798 4758 9553 1878 5546 4729 
789 2034 5743 3793 4165 2946 2206 6391 6173 
3297 7610 8461 25 4112 3082 9105 9406 4654 
2866 3677 3679 4144 7531 7534 1867 2923 9510 
95 8343 7940 8046 8475 7819 1499 3178 4995 
1953 8450 3474 1077 7193 6718 5497 7547 4517 
7375 4702 6476 8942 8799 7999 8027 6190 2656 
8138 2332 3259 3934 3848 8082 1097 9493 8667 
6356 8662 6352 5697 9585 679 6221 5272 3135 
643 8345 3045 150 7965 4921 8616 491 3988 
375 7627 840 5370 8936 1009 1695 6725 1883 
2769 9104 9654 4903 7856 7265 5387 6413 3892 
5402 4140 6292 9697 673 800 925 2059 2606 
6604 1110 5501 5426 4013 3144 8672 5613 1283 
365 6858 2587 315 1319 8674 9137 3078 3825 
827 1354 7673 4928 6587 5891 7040 2810 1991 
9952 7702 9476 6845 4498 2597 709 7160 8819 
7600 5435 748 6573 5917 1072 7354 5782 2841 
2304 8468 8104 3751 4955 5187 2426 9046 284 
8663 9061 9311 8238 1196 5851 2816 9089 362 
8522 9319 6605 2752 2277 5713 126 7921 3750 
3665 440 8354 641 4513 880 1646 7351 3566 
3719 7896 6470 5543 330 1571 1577 4058 9367 
6504 2333 4891 829 3119 3159 1469 2985 2663 
7854 3906 5411 9989 3339 8084 5471 457 3982 
4561 1998 8980 6846 9464 6786 688 4219 4203 
2782 8295 9231 2037 7566 482 8186 3627 88 
98 8748 430 5604 9912 7816 3687 1359 2802 
1847 1186 8162 2130 8825 239 2670 2114 7834 
1504 5109 622 8106 2398 9187 1803 4765 7733 
145 4997 406 5911 5506 5633 3157 8408 3316 
6376 6509 2573 3295 9858 9270 187 7097 7003 
8731 8149 1270 978 7850 6840 539 395 7656 
2390 7886 5394 9206 8368 2002 3878 229 4897 
23 6696 2739 7672 9727 1029 3012 3905 1659 
5886 680 4416 9278 9188 6371 689 501 112 
7277 2093 9708 8902 5610 1915 2523 5801 4334 
1662 6766 1152 1588 7092 4354 9025 4804 9366 
2299 3009 7203 413 1703 770 3650 3940 5483 
8754 36 2953 1898 3330 6937 6236 5043 4917 
3422 6934 5280 91 7148 6412 8018 2863 3588 
9921 5966 1515 8360 2139 140 8827 2263 6784 
7398 8178 5097 7633 1746 8114 6368 9435 7588 
7631 9514 3449 5528 6783 7513 2344 7990 1346 
9570 8040 7515 3623 1284 9990 9525 7536 1496 
8011 832 6792 5468 6647 4338 8780 6662 9793 
8375 4021 3789 4791 4275 4487 3991 5124 5627 
4383 2554 1711 9302 1575 7426 293 6468 6374 
1811 1376 5507 8510 8288 6944 5053 1039 2049 
358 4057 1633 3661 7964 695 1956 9700 3404 
3397 5865 92 3921 3862 7752 9011 4419 6357 
5905 6624 255 5527 8912 9328 2266 7107 1508 
3308 8337 5936 2065 1231 652 6641 3356 1297 
9197 981 2905 8749 3381 6442 582 4133 8100 
4581 1155 6017 7220 6958 5555 3253 3635 3092 
8680 587 5781 3546 2149 6959 2146 6007 6484 
1719 5636 336 5242 9591 7920 5295 8465 6432 
1386 5536 2020 19 1480 1667 7561 5326 1654 
3097 8336 2353 3454 4197 2156 5828 3004 5790 
7914 6414 7264 9382 3175 797 847 4821 7686 
1524 2190 7488 2477 4497 1371 5195 9325 8874 
5735 9878 3775 6880 6281 4999 3325 3535 1003 
6710 6923 3979 6973 6025 9826 5479 6360 264 
3715 790 3338 4154 5350 5720 2465 1133 510 
9787 7044 6544 3418 6941 9763 5922 4565 9549 
4446 8058 5088 4027 4080 8086 3114 6912 3086 
2004 3286 7166 1157 9599 9099 6351 6004 1135 
7320 1092 3824 9612 8062 9552 8655 8639 6250 
3010 5904 8358 8593 9090 5289 8862 2224 8849 
3652 8692 1438 7030 9556 7618 7944 4476 2552 
7390 7520 5558 1911 8409 8801 5118 2472 4818 
353 6204 5533 3706 8245 658 3424 2516 1790 
7294 8507 5461 5960 4543 9919 5160 794 8327 
2932 736 6703 5574 7943 9132 3276 8757 4640 
6820 4156 9896 4610 2865 4376 2372 7614 1947 
8049 3757 9446 4151 5300 4405 5916 5265 2043 
8539 1427 6806 3270 2636 2766 911 3200 6945 
9003 7516 3532 7870 8934 1620 2894 1465 3771 
821 408 7763 4477 446 2054 9414 5756 374 
6483 1308 6608 8642 3698 6309 7262 5652 6282 
3167 8282 5537 8534 1831 2963 1408 4233 5234 
33 1891 2711 7071 3863 7101 4725 2943 8221 
4848 7690 5586 3071 5218 2055 3849 568 3268 
5012 4979 3584 5882 8660 664 3835 5696 8022 
854 7650 495 5329 7714 2561 1381 8985 4253 
2419 5064 3094 9491 3165 2753 3521 6367 4425 
819 2595 9874 5179 995 8706 2886 8999 9752 
2135 7152 7893 1581 2601 3967 1400 1889 1920 
8338 5991 3496 5718 8459 4840 3411 7668 2912 
2249 1583 9869 8001 6117 4440 4110 5768 2416 
8092 2119 8875 9416 8661 1411 4655 4974 4097 
9616 6071 6455 1874 2082 2525 2791 8499 8735 
7583 9252 9161 7551 8709 7465 7938 3774 463 
8977 4849 6849 4961 6672 7867 4746 6838 4947 
8108 6247 5742 2834 6874 8966 8927 7905 6595 
7564 4042 1535 2965 2376 4987 8231 9194 9935 
5621 5180 5047 4020 4601 9879 3799 7801 4887 
3821 2991 3272 5404 5737 780 2983 7934 5877 
3360 2355 1913 9822 2844 3014 5786 8556 1052 
7635 6359 834 6804 627 8248 1215 9163 3282 
3191 5221 3382 5241 3951 591 5929 2331 2079 
5415 93 9931 3644 926 8679 9991 9664 7235 
6685 7888 5477 782 5176 2773 799 5302 6682 
1190 914 546 6495 1967 8373 7053 5225 9577 
5462 2084 7304 5071 5444 3490 9334 2759 2364 
3229 6313 1315 9358 5290 2806 1439 5472 9492 
8457 9714 2210 208 7404 2897 8908 8834 3923 
1962 2401 6433 2276 14 4355 6226 3779 7474 
66 2599 274 6716 2492 7322 3882 7950 1099 
953 5942 3931 1780 4944 4187 2545 7380 376 
9768 8015 1388 7718 5875 8069 2736 7356 5831 
8747 6977 4220 8988 965 3794 6745 7180 4070 
2181 3734 3234 8073 9655 5544 9219 1637 6400 
2874 941 6613 4958 4752 5773 3111 6342 9265 
339 4678 5263 1923 3595 5987 731 6152 9372 
9516 3416 5983 297 1109 6318 1422 1507 8740 
8495 2546 7343 8197 6119 7988 6556 6182 3118 
2944 8270 6053 5933 80 6055 6693 6629 7984 
5957 1273 2147 8957 4117 8910 3241 5164 2876 
4006 3350 3850 7414 595 3764 589 2979 7677 
1905 5776 6255 8076 8060 4816 1761 843 7895 
6328 247 2512 8614 169 8081 2412 7323 6114 
7919 4962 6057 912 8571 4045 4215 6711 4168 
9427 4062 9431 7242 8474 1051 663 4308 1046 
6070 5247 5063 8387 9484 2713 6531 6506 3089 
5050 8308 7584 1471 2420 2885 9066 2369 8595 
3283 7765 4559 1725 2469 1598 9820 7590 104 
4358 4878 1393 5745 1396 8065 3357 7646 6054 
586 1406 5755 9742 276 3326 7501 6862 7639 
879 8420 7127 3455 4285 124 113 6537 4320 
4408 7114 3597 5273 4927 2760 5619 9643 9299 
4294 2488 6349 7985 1450 6552 6734 918 2144 
7738 4266 6878 7271 1093 7307 4163 1895 5073 
185 4710 705 1042 7542 5655 8769 7017 5530 
9509 4851 8105 1432 5279 4372 4713 3604 5307 
6061 6249 5208 8543 6533 678 5640 5575 2749 
8572 8750 7466 7599 2856 9638 9165 3709 7691 
9321 8570 7994 739 9449 8181 7292 7540 8903 
3005 860 4912 2537 4715 2827 1582 6890 525 
2261 6617 2661 7331 6618 203 6686 6813 9812 
9124 4227 1226 1332 8548 2941 1656 6144 8576 
8648 7438 4771 6106 6698 4076 2737 2283 513 
1365 8057 9196 6897 2507 1812 9641 8587 2712 
8625 2980 9138 7638 1959 5722 8319 7835 4607 
3210 1399 8279 9732 5416 6101 6807 2916 9119 
3529 5927 2951 7334 8176 6554 3366 7719 425 
2173 5157 1191 133 4034 6283 6246 1219 4572 
1443 6397 571 4424 7952 3724 8473 4044 7425 
1724 2831 6752 7589 6065 3275 8940 8061 8669 
435 9143 9721 4890 3034 2175 7869 4035 5306 
2024 6761 3730 2644 3377 7091 7748 9077 7901 
9339 4309 3409 94 993 6648 8380 5994 526 
3739 9445 5111 3748 6507 1425 1950 3947 6850 
7270 2704 4411 1530 4488 6972 3491 1449 3920 
9038 7142 256 6594 5380 9324 4734 8301 9160 
1692 1786 5948 8071 3648 5085 4620 7945 1058 
3331 7844 3387 5442 1801 1661 6821 8201 5493 
3353 8973 2321 2061 958 4451 8938 5925 489 
5084 7983 9771 5710 3737 2252 2968 1541 7549 
6707 4264 2278 8557 3459 7915 5522 7946 4003 
7688 8367 5952 2591 5405 8729 4731 1224 2345 
8738 9889 8249 5611 1431 5914 8675 6779 985 
3101 6043 8462 9598 7872 7591 6335 7469 9280 
8691 4646 9447 2579 1810 5884 4192 9117 2028 
6635 1119 7948 8434 8694 6123 9152 2374 8096 
84 1409 9713 1696 5637 9640 4122 4059 5143 
55 1755 8559 4699 183 8596 5128 3056 4178 
9770 3407 7641 8657 4875 4971 3174 7789 9973 
67 6925 4105 9715 6831 2745 7090 1965 6462 
1416 5616 8794 6428 6457 6546 4048 7917 7657 
9059 3628 870 7430 1254 9824 5098 5788 4850 
8926 7249 7619 6709 2069 984 5316 1720 7884 
3834 2166 8815 8800 2341 6064 5235 2578 7427 
1201 2783 9078 4970 3088 4200 9723 988 7363 
2315 2021 9279 9601 5897 218 2890 3841 1375 
9854 3457 1556 7178 8854 4179 1020 8722 7047 
6164 4153 2660 5204 9632 2265 727 2566 6750 
9074 4937 337 5839 4519 6044 9092 600 6799 
9519 1066 9806 521 1229 202 2395 7621 6310 
1851 7625 3626 9899 5288 5058 3816 8634 2362 
2685 2646 4426 6298 1618 5486 1987 4901 9969 
8393 4525 2177 6755 6214 813 4240 2227 4663 
1218 2726 2528 3726 2999 6270 9720 5386 5304 
4223 5978 6545 470 4532 7820 9634 2787 12 
1699 6586 5107 7490 1397 694 1638 254 8067 
1684 2016 7154 1151 5940 8489 5169 7898 7971 
3590 1342 7089 1298 876 6372 3319 6763 8782 
57 7393 7433 9734 4041 5699 5804 6028 2297 
6133 1552 2563 9362 8892 1331 5894 221 4311 
5625 9271 4299 6165 2501 8945 9964 243 4757 
4661 2103 7774 1740 9267 8836 1048 9073 6915 
4756 9277 7909 8205 9390 2786 5425 3182 472 
9909 9761 4093 9186 7563 7912 4830 8864 6420 
492 1208 8456 8623 3028 6429 5888 4495 2437 
6271 3513 793 5023 6548 6373 4255 563 964 
1547 4247 4314 4251 3361 9408 7369 1995 7494 
3058 6885 8573 3368 5660 6882 7713 4323 6092 
2867 6633 1884 1877 9228 3025 2045 8103 4858 
3745 5245 7103 7595 2771 2490 2319 5990 1007 
901 7054 755 1802 5258 2995 6109 9617 2316 
9892 3403 8802 2244 4941 8019 81 8458 9956 
4246 8558 4670 1013 1858 3524 9039 2282 6290 
9236 313 651 8261 9051 7141 1047 308 9393 
3860 4437 8023 7951 996 2742 7684 1403 4274 
5603 2400 1350 4915 6875 1380 3763 8266 2535 
4047 7168 9904 5630 1290 7046 8511 5565 8717 
2808 4002 1733 1025 8608 5270 5185 8168 2483 
4568 1826 99 6177 8247 6678 3630 9558 8478 
5712 5281 8398 6445 5833 72 7349 5008 7972 
5724 5644 9174 8476 6118 3037 8703 5126 5141 
5049 8525 5285 1470 6340 531 4177 5812 6708 
317 3414 5954 4166 6777 4963 1022 547 6764 
2106 9867 9730 3352 6566 7424 4185 5077 8858 
7048 2904 5813 1085 3936 564 8968 948 1584 
267 4382 3946 536 6754 5452 7935 5320 1848 
900 972 6663 7968 6515 3246 8331 3169 4278 
9611 3158 8155 2664 7779 4000 5076 4401 6826 
305 7486 8379 8166 6030 3987 1002 2125 6538 
3856 2857 2895 6542 8544 5900 7798 5525 4983 
6148 1973 4204 3299 4248 7932 7367 7766 3334 
3636 6417 1823 3221 2926 7150 7810 7134 2014 
69 1901 4362 802 2716 2011 3068 1789 5689 
6612 3406 6076 7250 962 7629 5205 2242 9286 
8704 7492 1080 8422 5772 5250 5499 3783 1921 
2254 515 9057 2496 9437 1036 994 6601 8059 
9901 2950 3534 3485 2001 5664 4300 657 6659 
2303 6312 796 7108 3148 323 6451 8392 9212 
1856 6127 812 619 7276 177 4324 270 6565 
1900 2036 3512 9625 6580 702 1871 4501 1436 
7514 9487 1216 2884 6704 4313 142 8094 6938 
7312 5643 980 8477 6222 2194 9193 2714 1824 
9127 3095 6790 7846 6803 8136 6808 3090 5013 
294 2615 5388 9946 131 3140 7416 1475 3851 
5824 6347 8839 9266 6075 9180 5002 6987 2454 
8807 3143 3990 3371 6018 4755 9563 3927 6334 
9775 5371 4598 5797 7025 590 7409 1718 2500 
1389 4511 2382 1916 2274 3362 1894 8979 219 
3811 1691 3714 6964 5199 7874 8302 1210 2199 
8796 932 4448 9294 8707 4341 3575 2107 4552 
4268 9781 7681 496 2475 8948 9409 9489 5445 
7232 4672 2688 4217 45 8153 3611 8953 9740 
6200 6168 7341 8715 1778 1285 9739 7998 8466 
3833 2581 2197 2693 6990 3565 4549 4884 5939 
519 1992 1744 7761 4533 1429 8371 1173 1788 
7829 3832 5605 4666 5024 2692 1476 3044 6830 
8860 507 1001 8269 3960 3646 3682 6436 7007 
9388 791 3993 8304 9470 4435 4860 1722 7070 
5282 322 9986 8232 9235 544 5998 6895 4510 
1286 8091 940 4603 5909 4258 8044 4191 8889 
7868 3129 1785 3961 2568 3589 3400 119 405 
8481 5261 5431 2217 1171 3696 5540 9668 2384 
7963 2913 2248 2914 1031 3593 3876 132 9356 
6069 4773 7155 919 7243 1849 2607 2534 3579 
6223 2796 3893 3392 9676 9102 9291 4787 3047 
1437 3192 2935 5201 5121 9792 2336 2414 2491 
3287 956 3608 8315 1961 3476 2295 8296 3451 
4631 4130 3506 1749 2050 1775 4202 4085 5438 
7352 7548 949 328 5441 638 4173 6126 1005 
1676 8659 1194 2466 4490 753 3405 4444 7317 
7975 4777 5232 3556 1032 4385 4839 1491 3837 
373 2290 3578 4125 773 6263 9386 4468 3065 
2041 2104 432 434 8818 4182 163 227 4280 
1617 1123 728 2986 1904 6844 2582 3547 214 
4509 3033 935 7606 4017 4998 4391 9666 3928 
1330 7555 2154 1771 4126 6800 4038 692 3207 
3470 2804 1182 6863 6423 3067 311 4629 2211 
887 4741 1189 6910 3267 7033 1111 2017 6329 
7794 6322 1817 6646 8283 8172 9755 429 4374 
7518 6267 286 204 8890 3880 7238 4147 5042 
8822 1553 1271 1784 8666 73 5433 5564 2609 
1114 7858 3822 4649 3125 2236 6611 153 2888 
6670 4895 4793 2179 968 1669 3758 6415 9744 
4879 1309 8676 8226 4688 5260 3443 2789 8686 
6158 939 2648 7519 3461 1050 621 1651 4086 
5938 332 4512 3516 3212 2030 5810 3663 3386 
804 1300 449 2196 9624 1652 3903 5391 4293 
4480 2697 1405 8693 6115 5945 8118 3254 653 
8882 2803 3419 2649 7102 3311 8455 2839 1477 
4920 7706 2608 998 3598 8586 2428 3355 9474 
1765 974 7900 3343 7407 4693 8030 6583 7567 
4373 8969 6130 2686 4820 8038 5278 3036 4721 
1614 5856 5061 2746 3505 4349 3569 2937 7024 