# vtk DataFile Version 4.2
Generated by LIGGGHTS
ASCII
DATASET POLYDATA
POINTS 10000 float
-0.0161648 0.000953632 -0.0377884 -0.0161581 0.00332888 -0.0377999 -0.0165615 0.00642966 -0.0376161 
-0.0167109 0.00895434 -0.0375533 -0.0167479 0.010748 -0.03754 -0.0174008 0.0123872 -0.037236 
-0.0163915 0.0141253 -0.0376893 -0.0168503 0.0158906 -0.0374947 -0.0195194 0.000899888 -0.0361694 
-0.0177147 0.00155592 -0.0370926 -0.0163404 0.00240029 -0.0362823 -0.0178132 0.00334975 -0.0370427 
-0.0167132 0.00476482 -0.0368742 -0.0184025 0.00537921 -0.0367548 -0.0196154 0.0072187 -0.0361177 
-0.0180177 0.00724463 -0.0369465 -0.016233 0.00772295 -0.0363426 -0.0196382 0.00907678 -0.0361054 
-0.0181638 0.00976106 -0.0368705 -0.0194281 0.0108611 -0.0362218 -0.0191688 0.0127944 -0.0363555 
-0.0195306 0.0148246 -0.0361713 -0.0180257 0.0141152 -0.0369356 -0.0178612 0.0159717 -0.0360192 
-0.0195012 0.0166797 -0.0361838 -0.0177008 0.0174144 -0.0370699 -0.0192846 0.0185871 -0.0362982 
-0.0175958 0.0192017 -0.0371516 -0.0213255 0.000895247 -0.035144 -0.0173595 0.000899722 -0.0354647 
-0.0203666 0.00246298 -0.0357064 -0.0185701 0.002364 -0.035734 -0.0195076 0.00394433 -0.0351068 
-0.0213575 0.00416993 -0.0351235 -0.0177546 0.00426656 -0.0355015 -0.0199845 0.00547184 -0.0359168 
-0.0186017 0.00609632 -0.0349548 -0.0170476 0.00619957 -0.0358511 -0.021114 0.00670362 -0.0352681 
-0.0182481 0.00815993 -0.0354259 -0.0210809 0.00986546 -0.0352883 -0.0168208 0.00932616 -0.0357543 
-0.02086 0.0116433 -0.0354175 -0.0183894 0.0115107 -0.03491 -0.0168754 0.0113441 -0.0358586 
-0.0206375 0.0134451 -0.0355436 -0.0175682 0.0129756 -0.0355542 -0.0182043 0.0145499 -0.0349895 
-0.0164998 0.0144207 -0.0355339 -0.0209051 0.0158972 -0.0353859 -0.016067 0.0161192 -0.0358963 
-0.0218197 0.0178628 -0.0348312 -0.0181209 0.0176147 -0.0353364 -0.016315 0.0176711 -0.0350411 
-0.0207555 0.0192049 -0.0354781 -0.0171474 0.0192094 -0.0354192 -0.0224116 0.000896367 -0.0337175 
-0.0203228 0.0008997 -0.0336608 -0.0186058 0.000895206 -0.0341774 -0.0168591 0.00090094 -0.0337433 
-0.0233657 0.00241374 -0.033823 -0.021681 0.00252458 -0.0344851 -0.0195199 0.00243966 -0.0341283 
-0.0171283 0.00253198 -0.0346763 -0.022481 0.00397336 -0.0337363 -0.0182581 0.0039274 -0.0338162 
-0.0222951 0.00557729 -0.0345291 -0.0204505 0.00540264 -0.0341865 -0.017066 0.00536603 -0.0342574 
-0.0233814 0.00681595 -0.0338003 -0.0192348 0.00732304 -0.0338062 -0.0172829 0.00715927 -0.0342933 
-0.0222172 0.00794603 -0.0345776 -0.0204548 0.00827998 -0.0347165 -0.0217825 0.0100084 -0.0336453 
-0.019449 0.00993471 -0.0345363 -0.0178489 0.00923946 -0.0340549 -0.0235562 0.010293 -0.0336872 
-0.0168983 0.0107599 -0.0341609 -0.0223863 0.0115082 -0.0344681 -0.019882 0.0115877 -0.0339171 
-0.0230765 0.0133825 -0.0340096 -0.0212981 0.0131346 -0.0338983 -0.0191604 0.0130965 -0.0345589 
-0.0173752 0.0129889 -0.033766 -0.0220196 0.01466 -0.0347099 -0.0199602 0.0146963 -0.0344395 
-0.0168642 0.0147191 -0.0338072 -0.0233665 0.0159556 -0.0338106 -0.0215916 0.0162417 -0.0337652 
-0.0189416 0.016169 -0.0345523 -0.0172299 0.0164536 -0.034098 -0.0200384 0.0176336 -0.0347624 
-0.0186499 0.017721 -0.0336234 -0.0229048 0.0191556 -0.0341288 -0.0211466 0.019204 -0.0337309 
-0.0191785 0.0192039 -0.0346132 -0.0176324 0.0191978 -0.0336945 -0.0241556 0.000901401 -0.0332529 
-0.0190207 0.000903835 -0.03243 -0.0219468 0.00232416 -0.0327248 -0.0201444 0.00240395 -0.0324467 
-0.0180272 0.00226647 -0.0331475 -0.0245271 0.00375744 -0.0329862 -0.0206915 0.00373856 -0.0335157 
-0.0164839 0.00379286 -0.0335705 -0.016085 0.00511175 -0.0324142 -0.0244646 0.00557827 -0.033033 
-0.0226885 0.00550166 -0.0327857 -0.0209206 0.00538887 -0.0324483 -0.0190919 0.00566099 -0.033038 
-0.0174244 0.00626695 -0.0327452 -0.0213769 0.00677593 -0.0334947 -0.0230682 0.00864412 -0.0331548 
-0.0210621 0.00847933 -0.033037 -0.0179295 0.00799024 -0.0327674 -0.0249198 0.0092234 -0.0326896 
-0.0193617 0.00906388 -0.0329637 -0.0161843 0.00899457 -0.0334206 -0.0184619 0.010718 -0.0332533 
-0.0252706 0.0114665 -0.0324124 -0.023168 0.0118442 -0.0328623 -0.0213872 0.0116125 -0.0329416 
-0.0160167 0.0118228 -0.0330118 -0.0245332 0.0130085 -0.032981 -0.0198155 0.0130185 -0.0328286 
-0.0249598 0.0147247 -0.0326566 -0.0223956 0.0147023 -0.0329585 -0.0206146 0.014629 -0.0327776 
-0.0186473 0.0143113 -0.0332739 -0.0191667 0.0160457 -0.0327727 -0.016 0.0161206 -0.0328308 
-0.0239271 0.017621 -0.0334225 -0.0221283 0.0178599 -0.0330607 -0.0203822 0.0174461 -0.0330096 
-0.0171877 0.0174505 -0.0326052 -0.0248137 0.0192024 -0.0327694 -0.0194476 0.0191614 -0.0328364 
-0.0162021 0.0189661 -0.0326359 -0.0265399 0.000914689 -0.0313867 -0.0245253 0.000910489 -0.0314908 
-0.0227923 0.000899192 -0.0319626 -0.0209964 0.000894999 -0.0319899 -0.0172827 0.00108895 -0.0320109 
-0.0255316 0.00221162 -0.0322119 -0.0237443 0.00241687 -0.0320789 -0.0186378 0.00240718 -0.031469 
-0.0254528 0.00384287 -0.0314556 -0.0214235 0.00378349 -0.0318199 -0.0193264 0.00400092 -0.0323791 
-0.0174695 0.00362303 -0.0320821 -0.0232355 0.00411213 -0.031789 -0.017882 0.00521879 -0.0313688 
-0.0264899 0.00530961 -0.0314285 -0.0246597 0.00547894 -0.0312584 -0.0195934 0.0057671 -0.0312966 
-0.0256316 0.00671414 -0.0321339 -0.0224603 0.00715112 -0.0321141 -0.0200562 0.00724183 -0.0322117 
-0.0182441 0.00697974 -0.0313131 -0.0162345 0.00755237 -0.0323532 -0.0261569 0.00837503 -0.0317016 
-0.0241547 0.00773247 -0.0320475 -0.0214961 0.00843011 -0.0312946 -0.0267151 0.0100161 -0.0312378 
-0.0209251 0.00997944 -0.0320691 -0.0238606 0.0104591 -0.0319298 -0.0222513 0.0108494 -0.0312306 
-0.0185839 0.0100966 -0.0315745 -0.0169661 0.0101964 -0.0323439 -0.0197787 0.0113568 -0.0321422 
-0.0176689 0.0120023 -0.032289 -0.0251398 0.0129299 -0.0312975 -0.0220292 0.0131147 -0.0322016 
-0.0179672 0.0134445 -0.0312681 -0.0162779 0.0130268 -0.0317139 -0.0263352 0.0142543 -0.0315559 
-0.0235619 0.0139636 -0.0318118 -0.0215333 0.0145536 -0.0312459 -0.0192423 0.0146563 -0.0316232 
-0.0261476 0.0160358 -0.0317067 -0.0174006 0.0149191 -0.0321141 -0.0242474 0.0163162 -0.0322367 
-0.0224572 0.0163241 -0.0321973 -0.0207082 0.0161446 -0.0318137 -0.0254892 0.0176214 -0.0322409 
-0.0235705 0.0177576 -0.0314051 -0.0190119 0.0176583 -0.0318678 -0.0262193 0.0191967 -0.0316494 
-0.0230704 0.0192052 -0.0323422 -0.0209976 0.0188673 -0.0319756 -0.0178377 0.019114 -0.0319123 
-0.020927 0.000901026 -0.0301945 -0.0191504 0.000894562 -0.0306453 -0.0260137 0.00243494 -0.0304948 
-0.0236728 0.00236993 -0.0302941 -0.0219967 0.00222478 -0.0309358 -0.0169926 0.0024083 -0.0307428 
-0.0271935 0.00377104 -0.0308234 -0.0223856 0.00383051 -0.0302238 -0.0203258 0.00283831 -0.0307111 
-0.0241649 0.00408831 -0.0302325 -0.0210118 0.0049534 -0.0305191 -0.0190985 0.00414401 -0.0306091 
-0.0166187 0.00420317 -0.0305979 -0.0278368 0.00535293 -0.0302417 -0.022874 0.00568843 -0.0310127 
-0.0164855 0.00631588 -0.0310754 -0.0271439 0.00712571 -0.0308682 -0.0249084 0.00711026 -0.0305352 
-0.0229509 0.0073728 -0.0303946 -0.0212546 0.00670058 -0.0308617 -0.0196599 0.0072463 -0.0302391 
-0.0197324 0.00876758 -0.0311948 -0.0178654 0.00865405 -0.0307762 -0.0277627 0.00889214 -0.0303033 
-0.0250084 0.00951411 -0.0309174 -0.0232027 0.00897524 -0.0311694 -0.0209785 0.00986643 -0.0302815 
-0.0277409 0.011178 -0.0303247 -0.0167892 0.0100787 -0.0305608 -0.0257231 0.0114327 -0.0304986 
-0.0236182 0.0120043 -0.0310566 -0.0205783 0.0116014 -0.0305522 -0.0187455 0.0119026 -0.0307795 
-0.026953 0.0126294 -0.0310342 -0.023875 0.0135 -0.0301069 -0.0220502 0.0126583 -0.030464 
-0.0202736 0.0132803 -0.0311079 -0.0276927 0.0141308 -0.0303753 -0.0252707 0.0146261 -0.0301556 
-0.0201578 0.0148141 -0.0300848 -0.0230831 0.0153762 -0.0308128 -0.0215277 0.0159779 -0.030148 
-0.0179678 0.0150248 -0.0304179 -0.0274515 0.0165716 -0.0305833 -0.0246127 0.0162608 -0.0304848 
-0.0192326 0.0162425 -0.0307898 -0.0165371 0.0161273 -0.0311118 -0.0274378 0.0183803 -0.0306129 
-0.0259188 0.0174763 -0.0303122 -0.0217412 0.0175136 -0.0310618 -0.0202805 0.0174754 -0.0300206 
-0.0175323 0.0175977 -0.0308491 -0.0245528 0.0192008 -0.0309733 -0.0222616 0.0192036 -0.0307431 
-0.0194004 0.0192035 -0.0310398 -0.0178056 0.0192049 -0.0301023 -0.0281413 0.000931119 -0.029965 
-0.0262798 0.000895989 -0.0296105 -0.0244887 0.000891368 -0.0296984 -0.0227101 0.000891527 -0.029975 
-0.0196574 0.000894835 -0.0289256 -0.0175112 0.000897466 -0.029916 -0.0282641 0.0027197 -0.0298352 
-0.0246887 0.00243926 -0.0288137 -0.0225268 0.00236629 -0.0289132 -0.0189057 0.00239901 -0.0297006 
-0.0170072 0.00229745 -0.0289156 -0.0292751 0.00383226 -0.0288455 -0.020213 0.00401302 -0.029212 
-0.0178563 0.00381968 -0.029357 -0.0160791 0.00383395 -0.0289253 -0.0273308 0.00409634 -0.0290663 
-0.0258391 0.00464428 -0.029897 -0.0264084 0.00629144 -0.0294618 -0.0244148 0.00570156 -0.0294998 
-0.0224745 0.00539507 -0.0292918 -0.0207511 0.00617239 -0.0292178 -0.0187952 0.00565244 -0.0296913 
-0.0284532 0.00692756 -0.0296403 -0.0178367 0.00723522 -0.0295789 -0.0291887 0.00840678 -0.0289359 
-0.0261023 0.00829835 -0.0299057 -0.0241115 0.00857225 -0.0296773 -0.0214624 0.00789423 -0.0295322 
-0.0195679 0.00875897 -0.0292698 -0.0166747 0.00856496 -0.0292102 -0.0225877 0.00952083 -0.0295744 
-0.0179368 0.00981289 -0.0289471 -0.0288126 0.0101237 -0.0293149 -0.0262872 0.0100541 -0.0294965 
-0.0244796 0.0105511 -0.0295447 -0.0211866 0.0111115 -0.0289351 -0.0192993 0.0103995 -0.0299581 
-0.0161988 0.0102554 -0.028857 -0.0288886 0.0120329 -0.0292381 -0.0228449 0.0113006 -0.0295975 
-0.0195744 0.0119516 -0.0290947 -0.0174848 0.0114205 -0.0295986 -0.0272488 0.012778 -0.0292721 
-0.0254824 0.0129466 -0.0295369 -0.0207571 0.0132749 -0.029375 -0.018912 0.0134833 -0.0297467 
-0.0167743 0.0130204 -0.0299928 -0.0289764 0.0138247 -0.0291568 -0.022303 0.0142439 -0.0296607 
-0.0164442 0.0147207 -0.029522 -0.0286804 0.0159111 -0.0294424 -0.0267314 0.0151442 -0.0292517 
-0.0236016 0.0156798 -0.0291211 -0.0187552 0.0150337 -0.0288089 -0.0253444 0.0162116 -0.0288473 
[...]
POINT_DATA 10000
FIELD FieldData 7
id 1 10000 int
8318 9684 5224 160 9872 4667 6421 687 1362 
5355 1997 5345 1600 3958 4370 3116 3689 9686 
1502 945 577 8357 2801 3956 7467 2291 1293 
2989 4157 2891 2867 4120 710 6103 3201 859 
4530 3659 2750 2422 9962 4747 6425 2133 8509 
9223 681 3177 184 6894 4705 60 9079 1675 
2945 1768 2686 4486 463 3525 5766 1601 3020 
3577 404 2051 5583 6528 139 5856 3223 483 
381 4337 7197 4443 1255 1430 1922 6274 2709 
9801 2847 554 2439 4863 3738 8984 3318 1892 
4726 1256 8077 200 6359 3436 2457 326 9833 
371 2222 1985 1704 1935 4558 4369 955 8258 
2167 3705 4214 4114 4844 1727 2531 1969 5956 
2574 4270 1926 2614 8883 913 1419 5419 4871 
5541 5148 9680 3107 2318 6498 499 4152 3932 
934 5191 2182 8145 248 3933 2281 3647 5589 
6575 9533 2845 7759 3539 4508 4514 9047 3257 
331 7676 849 9589 2720 2309 1857 991 8975 
2677 1030 7076 5192 1658 1306 321 4652 3959 
959 6315 3625 4795 1360 9777 2078 2550 4880 
4836 1865 9624 4540 2434 2789 3126 4307 8586 
4284 2969 8923 4482 3313 7365 2044 3629 4116 
8528 3007 3865 2853 3218 3552 3599 9821 3802 
5779 7353 9594 3693 4081 4709 4262 970 8686 
7750 2366 714 9924 3519 2899 424 2998 1994 
9141 2931 1678 2819 2467 1966 22 8334 4315 
74 8629 2530 2163 2948 3509 5846 4456 3632 
311 9704 601 8164 4229 5433 3288 1996 3173 
8901 5498 9592 3553 211 266 4340 5322 4016 
451 3939 3249 8281 5421 1221 3838 2216 3462 
9797 987 9536 3214 4400 3199 1635 513 1107 
3479 9651 9865 3760 3533 3944 3761 5853 4919 
952 101 5608 8895 2996 1335 1102 9773 3573 
4082 8578 9949 4712 2009 1708 1014 2444 8041 
3975 4853 761 1181 9811 1479 3258 4554 816 
8085 5040 1299 1082 9135 3891 7358 4396 1687 
1395 4421 1948 484 2832 2604 178 2015 4276 
3766 2083 6393 2334 1259 3543 3686 7997 951 
2509 1497 7082 5152 6991 2827 1061 2193 6079 
5133 100 1793 2889 3914 6096 1685 6422 7756 
2136 2958 4645 1531 4740 1959 6069 9794 1134 
2371 5146 34 3669 5156 4647 9162 1113 2770 
1038 2476 3654 9936 2397 4553 2761 3481 2447 
2596 9353 2668 4564 671 3667 5770 2541 3671 
4856 1049 9864 9630 4602 180 357 2099 2310 
7008 4625 4748 2735 3918 7184 1034 3916 4250 
2220 1365 8759 1269 351 1825 690 771 380 
5606 3248 886 4251 4859 4778 4419 1982 1537 
9648 3110 6225 4029 1231 108 2335 4855 8469 
8223 4167 6009 3370 7035 8763 9883 2689 3550 
4593 4845 1671 3003 6126 4965 4036 5245 4964 
1555 3084 9451 1509 2938 3508 2656 9275 4272 
2164 9397 7839 9778 2594 4643 2186 5767 9432 
4228 3420 5218 1154 2798 625 4691 437 1593 
5083 3554 2980 722 3235 8260 4182 1442 4033 
216 2088 2762 2473 6284 1716 4208 2233 4206 
3609 3825 5257 8322 4286 423 4113 4087 748 
7098 8513 1420 9034 387 9902 4900 4503 997 
9510 8822 562 684 414 8798 7328 4692 4588 
1204 441 1369 388 8621 1366 1976 6747 7072 
7689 4481 3563 1580 6362 2020 2678 1341 2377 
1681 1252 5707 9642 9959 1697 3680 4147 661 
3655 6072 7571 4595 2202 623 2658 4616 6288 
2484 699 1562 3188 1748 2758 3692 1249 1918 
4578 1702 5858 2824 846 360 1588 3146 4449 
3612 7411 3074 1257 5725 6152 2521 9115 1558 
7435 4111 1974 5334 820 4422 5560 3015 2940 
5889 1012 8055 3574 4717 4317 438 6778 9530 
4129 3585 1404 4774 6838 3309 5654 6625 5392 
5885 9313 1373 1512 7990 2715 2616 6240 3997 
6836 9646 3417 6239 4015 9502 9170 8787 4922 
21 5909 7199 8974 300 3503 1474 726 6400 
2323 3704 4397 3978 4070 4305 597 8757 5931 
9414 6869 3919 3421 4825 5080 3489 1954 635 
3292 3906 8587 4569 1311 2959 382 2966 79 
3698 4725 6796 2710 2510 3613 4231 197 4436 
7787 700 3091 2206 3098 6273 2132 4073 3043 
1100 7609 4216 9622 485 241 3765 9435 9411 
1909 4011 2403 1361 4517 7714 7876 8871 4912 
6833 668 193 1957 1164 3728 333 7556 6305 
1605 867 1104 3134 4416 9194 5063 7125 3190 
1796 330 3557 6316 4474 4576 9008 1253 491 
5745 7045 3238 1519 1180 1882 1931 561 4739 
4903 1571 5240 5943 517 1153 2529 2075 2048 
2188 5328 7758 361 4590 136 7762 2747 2288 
4347 7252 2799 2507 828 4655 8825 6286 5164 
7659 3286 5073 5310 1501 8852 1949 3517 6206 
2802 8070 7188 335 2897 250 3620 7938 6306 
7638 2013 2485 2793 1840 7704 8284 3810 2719 
3329 5528 8297 4746 8494 4068 2575 8777 6169 
2624 1852 4273 6082 4176 7324 4091 2812 7332 
8251 4781 4199 2340 6167 3900 4138 1091 2477 
7050 5413 1457 4219 4878 9963 1473 7885 662 
961 3684 6039 3447 1914 3422 3535 6518 4440 
3335 4565 2266 1787 8353 712 979 6398 8910 
3411 6442 9130 677 4802 4064 1391 3093 2270 
1627 4628 8105 3439 3941 2866 6047 1515 5572 
4102 2551 1679 529 9023 4433 5794 5555 8844 
5229 2338 4700 721 946 1067 685 8866 4119 
9320 4624 838 1762 1732 8869 5497 6817 5359 
9232 3062 2003 8429 2002 3071 126 7719 9754 
4929 2066 4763 8564 4213 3460 68 5370 995 
8556 8742 1124 942 2917 5877 1406 3444 704 
238 8248 9756 3892 1844 800 7343 4989 7852 
1095 9711 2436 1967 5994 9028 3511 688 1399 
8661 6349 3507 3723 6829 822 3862 3009 9196 
9334 5800 2251 9218 2144 5978 5361 3782 25 
8960 482 6841 1797 5986 3681 924 6595 7255 
4053 3185 2622 7465 8908 8404 9209 2869 8188 
8963 9297 904 3755 2267 877 4600 6011 6497 
7362 7077 9916 7765 15 9812 6175 7389 458 
6980 8412 9210 4818 2171 3224 7921 1946 2728 
6594 4528 9164 4772 3894 4987 6179 9373 2934 
591 7092 7214 6499 7838 5485 3354 1393 9978 
1485 1866 2717 2134 4376 5195 9298 11 7182 
1359 731 4632 1083 8973 8583 1146 1215 256 
5553 8627 8833 2370 3283 511 2 5556 6155 
841 1919 7450 9358 3787 8495 6919 4118 915 
2923 6462 3054 9018 4720 5631 1597 3694 870 
3590 1024 9689 1709 234 1943 7158 8149 2161 
7396 7783 8723 9875 6161 6226 4810 1578 4051 
2538 14 1328 7688 8803 920 189 5124 6928 
9143 7268 9426 1035 2372 4979 9719 9578 927 
1595 5882 3094 3748 3097 8548 7732 7216 1037 
344 5238 9431 7146 442 6759 5621 2333 5773 
673 3320 1076 7387 8391 6517 430 1029 3350 
7034 6256 9002 2478 2700 2546 3404 1863 6512 
9750 4357 1017 3441 1273 4744 6629 9877 4866 
4927 2130 6365 3909 3842 4714 1315 1326 6755 
9119 7887 2772 4052 3774 3219 6141 7619 5899 
7446 878 9997 1484 2328 4326 2733 4990 5655 
6968 9970 3262 6731 2141 8801 6976 8635 9772 
9692 5011 781 8206 5208 4283 5492 3874 9094 
832 6783 7905 4062 5390 9335 6819 1279 261 
4045 4169 7162 6918 7656 4046 4014 8932 2517 
6876 6757 9977 4769 3912 8246 7805 8407 6816 
8252 5597 6418 7342 8892 6377 7602 9703 8351 
1427 6253 4752 8657 9712 7522 9782 2358 293 
5273 8947 7784 3727 85 8298 9137 7580 4534 
301 6685 3850 6143 9709 830 1878 4573 9276 
272 8162 7753 4210 3306 3171 1413 8179 1292 
4935 2311 5957 2871 8921 4186 3274 1819 2892 
1266 6255 3092 208 9123 6734 8122 2511 5872 
3741 1147 3469 6670 9040 9091 7309 4926 203 
9001 7115 8387 1338 6529 9371 2419 3584 6414 
5611 1979 9982 7063 7814 8468 1446 6588 9621 
2156 2577 595 2426 8096 8995 5819 9195 7615 
2348 5461 7999 3566 5219 9263 8087 9110 5139 
1536 152 417 8773 823 3111 8832 5017 1003 
3014 4840 9853 3204 363 290 1379 5827 9673 
9658 2724 1152 1777 1112 3597 6597 8536 6587 
320 4088 860 6854 5620 4190 8 6037 6709 
5319 1483 1287 2968 5043 7128 4783 2877 8178 
907 2210 7307 5946 9581 9726 3208 3253 4007 
6664 7542 4767 2655 8329 9010 7427 5645 7282 
2559 2910 5911 850 8929 8935 9436 5067 1158 
8967 9225 6886 6205 5455 6231 7867 7047 9817 
5695 2911 4594 5829 8616 6950 5465 7081 5256 
9827 3432 5050 2265 62 971 1109 7925 9096 
5987 9940 5097 9608 3750 2489 3757 6519 5915 
7740 9728 7417 8128 1388 7044 5996 7143 2320 
7151 377 4786 4887 4163 4613 7501 9366 8644 
7815 9685 7883 1570 7516 4908 5704 6344 3908 
2488 2951 5975 8125 9947 508 705 510 9342 
7928 9701 639 2055 3210 4620 9663 4420 206 
2387 2756 6263 8573 4426 2308 3675 4143 222 
3387 5530 7543 7781 6826 9213 4023 4805 6686 
8067 5289 5502 8703 7791 8490 4271 898 4770 
9273 9241 5723 9460 6749 7228 7687 8402 6460 
9178 6035 8342 2008 5897 9310 8309 6430 2527 
2987 8775 3195 19 1270 8522 2076 6736 9980 
2023 4154 7426 9554 6992 9629 7996 4404 3326 
5350 6507 7006 8781 5861 83 3644 6682 8376 
9584 1875 574 2603 6053 6108 8724 5090 8016 
3922 2528 6931 6967 7023 9788 345 918 2791 
9446 4563 8829 1615 2258 2790 1411 5048 9688 
7709 2069 7249 5537 6139 9509 9810 9538 1820 
2289 5046 6071 5252 7061 9971 5935 4236 3864 
9405 1186 4850 8926 2547 7169 8397 3431 1764 
2304 1004 7898 6249 6690 2831 647 2797 6857 
7741 1829 175 406 7030 5547 5522 9705 4026 
6908 224 6655 7546 8249 8005 9157 818 4221 
1811 4527 4937 4980 6382 5763 1187 4730 353 
8015 6293 4551 7493 1984 5468 477 4599 4230 
7908 2347 3820 5988 2764 8670 5789 9886 1754 
4247 2283 7270 6040 9290 3016 3465 7470 5756 
4344 3061 9546 4604 1541 7330 9021 3011 9656 
2449 582 4071 7127 5197 8282 9200 5348 4387 
632 4294 4170 9391 6683 1690 3196 7657 8565 
7700 5351 8064 350 1861 5724 8842 9222 9966 
1572 1063 5883 8769 8938 7550 8303 146 2112 
3100 4518 1911 5012 5339 7661 9065 4207 917 
4493 225 1496 8614 8805 8222 5581 7412 8333 
7423 8710 5309 385 1612 8942 7499 7314 7064 
2108 5243 3 5247 7903 3845 5642 8244 8045 
801 2878 854 7561 2644 7275 8515 6852 2105 
2737 8539 8417 8426 5647 2828 3197 3515 3325 
586 6237 9555 9415 9163 6758 7524 9420 2237 
1179 8765 743 3640 7985 8497 9211 7185 5450 
1240 3338 5477 810 5110 7822 6985 457 2135 
3455 4161 5018 24 1026 8420 3594 2711 5304 
6000 6652 287 2944 3793 5788 5585 9859 2433 
8655 4607 7490 7271 5323 9049 9803 1334 4399 
3053 6784 7320 7677 7724 7669 1573 4703 6578 
8987 6475 5717 9296 7737 5162 471 1467 4181 
7054 8603 9954 5129 1654 1758 1329 3101 9145 
7743 1712 5533 7971 6861 9895 5617 6395 2256 
3138 9087 8898 6472 1550 1763 2214 7109 8399 
825 7508 5662 5272 9312 8326 7454 5401 4622 
3089 205 355 8454 5357 4623 9522 3522 3797 
2704 8740 8090 5629 7995 6793 1387 8595 8107 
8783 3149 3954 2049 6604 5058 6946 5580 4967 
9179 8673 622 5200 5395 3428 5953 7512 2004 
3064 5838 6060 5358 1258 303 6548 6214 7382 
9256 1118 318 6891 7622 1905 5776 3160 8478 
8271 8955 7024 7455 3077 2994 210 6064 5144 
6248 9543 9444 3666 680 8667 7464 7178 3899 
9368 6722 6130 9985 7156 473 128 8750 8448 
6319 8486 1810 7853 5070 8316 6579 9103 6086 
4954 9816 889 1660 2492 4253 5412 103 9381 
9662 604 2442 1582 7801 5615 8915 9561 1816 
288 3521 2757 3360 2564 166 9258 9005 1011 
2513 6500 8483 7085 6962 6296 6719 297 1665 
3951 6117 8115 6776 6078 9549 1543 5241 202 
1801 6545 3305 2226 3595 8001 813 5852 9058 
7644 7597 7172 9894 4914 2176 5476 7904 9171 
9645 3167 7339 1527 7816 3992 6001 5215 9671 
2825 2264 426 4240 7284 8214 6834 4380 3123 
3635 3241 3610 8797 9144 7776 7017 8176 5054 
9248 1008 7777 4365 3528 4124 111 7448 5679 
7598 5333 2942 1907 4535 1494 4924 5696 2343 
5749 5474 4736 4366 8525 7962 4507 2016 4192 
2936 5614 5741 7958 4145 1961 656 739 8110 
3848 2499 3819 7817 8443 7613 9659 112 641 
8694 1500 7533 530 5271 8021 5230 5000 5538 
8718 5610 1278 6428 7013 9882 2585 3873 8693 
5680 5868 7415 3096 3561 7476 2881 9851 5509 
1714 9085 3353 4875 5878 7405 9698 1092 2022 
3407 8023 5399 5398 4453 2875 782 5901 1418 
1093 2886 709 7527 9024 7083 1241 2356 129 
2398 3743 2701 607 5551 6092 6224 7186 2192 
425 4854 4382 5169 6334 6695 9345 7236 1818 
3165 6204 2195 7591 6523 6917 6939 504 4478 
2834 2341 8809 8199 7920 6174 3136 4999 2429 
2490 3745 4239 6631 3464 8277 2882 9339 2024 
1053 5128 9600 7672 107 2142 2352 5337 8591 
5010 190 1384 81 396 4719 8017 8043 774 
1637 1200 8764 1521 4968 1598 2862 5535 9172 
6101 1039 1786 6790 1235 2313 7037 7837 77 
528 1033 8218 3866 8808 598 1088 492 4110 
4117 2480 6825 6191 7129 3963 2054 4314 2364 
8488 5811 8180 1549 2768 4928 3086 2560 7459 
8836 9520 1611 1135 9380 5823 9216 8259 4475 
921 984 8709 1042 7911 9193 7205 6446 4639 
4356 2557 958 2406 8741 8839 6953 4985 7554 
1574 2706 6502 435 875 6061 5194 1962 5578 
6019 7462 4200 2822 7562 9150 2454 7648 6234 
7930 2207 9265 2545 3025 7425 7308 6504 57 
1556 3332 868 1234 3794 8640 5792 7473 6406 
6754 9529 6680 3377 4148 3818 2346 5950 5764 
1126 1920 3746 2643 4834 8917 5032 439 9729 
1587 4411 9158 1798 5670 6184 9795 7445 840 
2190 1610 5863 9020 6280 4012 3467 2228 2646 
9433 7010 6843 6264 4539 3688 7090 2744 5675 
6660 6681 4917 2253 5754 2815 7316 6922 9790 
3836 1694 5596 8048 2039 4538 1280 5748 5712 
8550 1782 9348 1991 3796 7957 629 7742 7335 
565 9389 2365 2084 4704 2979 6864 5796 9332 
8433 3351 578 2591 3215 8815 4848 7746 9198 
198 3833 89 2128 6010 716 2166 1864 4940 
2287 2261 1165 7323 5066 8053 5923 7655 1089 
9582 4610 5653 4427 6606 1503 8211 525 2268 
5649 5368 9789 548 5439 539 689 127 8341 
8728 9148 6827 481 1812 3276 4413 4737 5376 
7483 8671 2680 2555 9654 9182 5734 7359 634 
93 7942 4976 7909 6884 3104 758 6998 3771 
2787 2324 5467 7592 8268 7160 2962 6525 6913 
2848 8256 9173 6440 260 493 3564 4401 8014 
2437 9056 7932 5817 3117 2058 4123 1499 1510 
2227 5213 9661 9116 9911 3330 4104 6513 12 
3567 221 9920 5636 5963 3480 1746 3406 4198 
6543 7736 4265 3052 862 6808 118 612 9132 
3473 3154 4970 3736 3520 599 6585 3176 2000 
8941 9644 6943 6470 844 7929 1232 9732 3942 
7142 3722 2115 4259 6466 4103 2165 8881 9579 
996 9267 2647 8133 5212 3346 2833 6435 9702 
5122 1917 9931 2314 6665 5076 909 837 6459 
1581 276 1696 3083 1726 6574 9694 9120 6437 
389 3962 8909 3324 7451 6299 9933 4439 3887 
2043 4901 9244 9419 9753 4994 2502 7460 4477 
2773 7487 7221 1506 5532 3028 7844 5098 9548 
8364 444 2263 4080 1683 6492 872 2483 4139 
2375 6814 4916 7133 9774 2525 738 1717 1504 
9151 9285 5127 9567 2718 1086 3081 1438 3834 
724 7626 8779 4690 2681 559 4715 8854 2410 
4641 8810 750 3804 3449 3457 2840 5314 7653 
8410 3376 8555 1832 9556 1769 4505 788 600 
1310 3931 138 6456 6066 5640 7943 985 299 
3607 9613 6068 627 537 4556 908 5512 6520 
1283 4583 4513 67 1350 7617 5344 1672 6577 
104 372 3897 6568 1355 8270 3331 3416 1320 
5173 9639 851 3529 1465 4223 3650 1735 3621 
308 6765 4612 8824 9439 3049 2820 2743 4417 
5862 1873 5196 1895 3339 8094 3883 1138 2252 
3490 2438 3340 1891 5890 6088 611 2194 4006 
3852 8622 4297 310 383 6700 3221 4266 4939 
2841 4723 3966 4042 4329 4430 1343 2498 9968 
4615 6142 5283 4731 2578 4890 1770 4570 9852 
3384 3295 1634 1850 4846 1332 40 218 4392 
4055 9638 20 6977 538 1740 8401 4598 500 
3180 3637 2005 1216 4683 7331 4459 4197 6975 
58 8837 9262 8004 1713 3088 3798 4757 9521 
4567 501 881 4906 1428 1356 9620 7111 7440 
3628 2183 852 3056 6688 9572 9564 4209 1641 
9243 7439 799 6030 792 38 1263 1897 3118 
1133 1854 9237 7579 8026 9855 1783 4339 1547 
2722 186 2597 4472 8749 7349 2468 1742 8074 
8946 8518 9401 2482 1226 2362 315 7603 6496 
4753 1245 4232 9604 5791 1368 876 1684 3459 
201 2860 9884 9832 4572 2396 740 9693 4298 
5730 2520 615 633 376 3008 277 6289 2376 
3730 1789 1937 7012 9627 3998 1870 1210 4168 
6557 503 3057 2589 4815 6058 167 5086 1176 
418 2073 9511 9069 5021 2977 4915 3867 1295 
4331 1567 3943 2983 1054 3685 6596 9462 7310 
5613 4412 4061 2685 1002 9939 8482 9834 4966 
7495 8758 4495 488 1692 975 2235 8106 2299 
337 2515 4830 1048 2716 3112 9316 9825 3588 
4320 285 2694 6 8649 4336 5903 992 1313 
294 240 3768 1464 6911 9118 7600 7584 746 
1867 470 923 694 1670 6163 6505 9376 4945 
8582 4362 1826 786 6501 9948 6279 666 571 
4592 1219 2175 1693 1443 1877 4195 3735 3034 
1636 368 3414 755 9906 6265 9479 7477 727 
2021 2297 4858 3682 4921 3336 2599 412 682 
5055 2213 8141 433 505 2904 9228 8685 9575 
6043 2269 676 4487 2660 56 5072 9458 1229 
3337 7951 1835 2771 9229 5053 1367 4310 3182 
4018 5814 4059 3415 6085 2400 2990 3524 5428 
6116 5096 1923 3739 1222 805 9765 6048 3542 
3940 9710 2863 3425 1925 7954 7485 4165 7235 
132 84 3884 5500 2821 4115 865 346 3996 
3907 3917 33 6608 4936 3831 2456 436 6259 
8203 398 3938 464 3778 1498 8195 2652 1799 
1899 3139 1397 802 2952 6075 6955 3540 2775 
2466 2278 7915 9545 9871 6484 4054 2638 3604 
1638 2045 912 4789 1099 618 6554 3080 3021 
3882 4394 8212 7421 4775 2091 2276 400 2412 
8158 733 4308 8198 3534 1950 6411 9220 7433 
1965 9390 6506 1524 5519 7897 1449 1047 9909 
3109 3302 4172 572 7016 6022 9844 7388 6450 
7888 4047 497 6750 1628 5025 1441 183 3513 
4257 2184 9739 5420 7021 5774 9921 3382 1653 
887 6373 7983 4358 3987 72 6803 6385 7233 
6495 1585 4323 1699 1285 7379 1853 6958 98 
3229 795 3140 7531 7084 6077 4754 3039 1488 
956 69 1439 6147 9783 6031 2567 8637 4107 
65 3926 2573 5141 3495 7811 9857 3001 6474 
2518 7352 5371 7250 8756 5255 6162 2316 158 
4177 3812 5284 6403 1431 819 5517 7948 5440 
90 521 3184 1085 2746 757 9917 7051 780 
30 707 1331 515 313 9299 6930 1860 6601 
8976 9842 4668 4424 2155 2745 9550 6386 2912 
2363 7590 1956 5265 9092 1747 2950 5423 165 
5552 8099 8828 7119 2474 770 3463 4105 1851 
8612 7498 3719 1987 3712 5948 8393 6699 9998 
9406 6974 2726 1105 1599 4249 4291 2408 9544 
4261 6552 4408 1155 3058 5034 5427 4807 3186 
5604 563 4536 5008 7835 9914 5782 480 6007 
8009 8354 6328 8441 296 9957 6874 274 1298 
6672 5942 7733 8566 6172 4877 7380 6247 7979 
9500 6283 1417 1719 9477 6165 8385 8348 999 
4044 8623 5990 649 6613 9281 4043 8400 6114 
7132 8458 1845 5434 6449 7052 2215 2879 4670 
5114 7049 9410 7894 5111 6850 6429 1052 8434 
5205 535 5316 3678 4633 8166 5765 3762 7223 
6363 1208 9464 5471 5140 879 4451 6570 8608 
4178 3601 6885 9553 8877 8794 2082 8761 9972 
6906 446 1254 7798 9763 9846 911 6123 2025 
8296 7702 2759 831 4710 2061 6394 7873 5132 
4078 9233 3085 4498 6740 545 9599 9903 8352 
5836 2441 8504 3923 6959 6760 7720 9610 2569 
2898 2146 4961 5120 9775 8287 8292 3991 8584 
9061 5638 5404 1381 6562 5193 9098 2369 9601 
2865 8059 6662 8931 5922 9259 6062 6134 8692 
5954 9156 6013 7180 9272 8992 6026 9967 9074 
7967 6865 1148 378 6973 6479 7707 9472 6392 
5204 7748 9088 6762 5406 5462 4255 964 7788 
8355 5408 8952 6213 1302 8672 5916 7855 7642 
8493 6318 9402 6912 7730 6222 8812 6201 2894 
1620 7428 2361 7484 8632 8201 9969 7372 8771 
8444 6802 3466 2926 3851 9161 5302 3731 4542 
1351 4324 1901 8817 3636 9282 7573 9084 7193 
7946 8800 247 7690 7173 8731 5924 9326 9981 
2512 5326 9506 5785 6023 9147 1608 6717 6473 
5812 9539 5346 4521 1978 8818 9540 5167 7291 
9915 4378 962 5405 8273 9873 8215 4952 5094 
5702 6537 6337 6925 9234 8913 8590 7391 5119 
6310 9964 8049 1955 1319 4758 6044 7793 1698 
8579 1700 8559 9975 7770 1159 9586 7283 8876 
5486 9619 8445 2037 4398 8934 1995 1405 7149 
8217 1308 6004 1618 8269 9720 9945 6381 7636 
8457 1836 9943 5301 9714 9946 9127 8062 8006 
8257 5249 9952 8236 1174 9552 2464 8072 8784 
3896 3413 5870 3255 4442 9494 8022 7373 7595 
7005 7974 1780 4984 8517 7895 9089 5045 9767 
8571 9762 6748 6899 8729 7520 1470 8377 1724 
6559 9632 9677 9505 4582 6367 6112 6432 2552 
7766 9891 6281 6146 2965 5626 6028 6737 9913 
9364 9618 9212 7370 9838 5928 7170 9927 8823 
8707 6390 8965 6549 9973 9362 9742 7058 5969 
5983 1410 9532 8456 9107 8597 8643 5787 6954 
9277 8168 9559 6866 3200 5457 8933 7969 5493 
9616 8372 5397 8461 5710 5623 5850 6067 3381 
8625 8802 5388 7494 7189 6602 6369 5769 2672 
9690 6536 9134 9573 7628 6046 7937 6558 7266 
7386 9675 2241 8857 5209 4003 9570 8782 7947 
7239 395 7269 7286 9757 9804 7632 5884 9133 
5574 5274 7587 6721 6372 7413 6346 9517 6034 
8577 7568 5143 8541 5091 6648 9874 7536 8080 
9480 9937 8945 3687 9104 9038 8669 8747 9202 
7469 9899 6221 9551 7808 9912 7336 9641 8853 
9786 9238 9565 7260 9219 8864 6839 9060 9697 
5123 5646 9475 7682 7576 9805 6674 7551 5496 
9986 7976 9696 9590 6809 5179 7834 5298 6542 
9596 8093 8615 5052 8687 6271 3213 6409 8452 
9780 2949 7057 6457 7683 6697 9416 8003 5258 
9944 3233 5030 5157 5087 9722 5673 6645 5729 
7003 8424 4141 8713 8101 9027 9249 3808 6465 
8221 5688 6618 8034 7939 9814 9041 7334 9652 
4951 5102 5558 9206 7278 5276 5843 7901 9923 
8873 8711 9246 9036 7854 5737 9878 1448 9759 
8002 9528 7667 8484 8421 9896 8266 7022 7691 
9787 5085 9733 5886 9770 7265 8496 9261 7438 
9847 9205 8879 5060 9863 9731 7535 5393 5188 
9965 9741 9328 8745 6811 9761 8867 7367 7534 
6675 5616 8373 9497 6872 7910 5565 8219 7361 
5367 6969 5906 7360 719 9837 5965 9724 3827 
9245 8011 9748 8140 8428 9747 6828 7865 9593 
6718 5291 199 8375 9311 5464 9515 6610 5103 
6193 9493 6780 3237 7371 5116 6696 5713 8535 
5221 8668 8184 9607 8872 8380 6684 7934 9588 
2982 4450 5666 6572 6794 9792 5387 9830 5186 