# vtk DataFile Version 4.2
Generated by LIGGGHTS
ASCII
DATASET POLYDATA
POINTS 10000 float
-0.0189668 0.000900617 -0.0364618 -0.0188961 0.00473461 -0.0365062 -0.0181602 0.00634357 -0.0368779 
-0.0177569 0.00808946 -0.0370653 -0.0188236 0.00948422 -0.0365395 -0.017794 0.010917 -0.0370493 
-0.0188864 0.0122933 -0.036513 -0.0181118 0.0138673 -0.036899 -0.0184288 0.015628 -0.0367412 
-0.0189908 0.0173834 -0.0364484 -0.0180934 0.0192006 -0.0369031 -0.0206336 0.000894855 -0.0355559 
-0.0191634 0.00294284 -0.0363596 -0.0203712 0.00412775 -0.0356959 -0.0200435 0.00597553 -0.0358819 
-0.0193457 0.00759088 -0.0362724 -0.0179929 0.00698901 -0.0352161 -0.0211802 0.00790929 -0.0352272 
-0.0202428 0.0102695 -0.0357702 -0.0178602 0.0104001 -0.0353324 -0.0204466 0.0120514 -0.0356541 
-0.0211971 0.0144654 -0.0352175 -0.0197095 0.0138538 -0.0360638 -0.0200165 0.0156338 -0.0358985 
-0.0207218 0.0172404 -0.0354967 -0.0212497 0.0189326 -0.0351794 -0.0196984 0.019108 -0.0360752 
-0.0223773 0.000896803 -0.0344801 -0.0198791 0.000966891 -0.033936 -0.0220232 0.0026443 -0.0346749 
-0.0202098 0.00251645 -0.0349189 -0.018336 0.00241448 -0.0348545 -0.020922 0.00389038 -0.0340091 
-0.0190863 0.00399593 -0.034443 -0.0228421 0.00418912 -0.0341671 -0.0179131 0.00520237 -0.0350809 
-0.022844 0.00639045 -0.0341757 -0.0216096 0.00526525 -0.0349596 -0.0200442 0.00547888 -0.034099 
-0.0196543 0.00717186 -0.0345629 -0.0225791 0.00862742 -0.0343425 -0.0184593 0.00870979 -0.0349604 
-0.0209791 0.00946197 -0.0343465 -0.0223859 0.0107316 -0.034477 -0.0193461 0.0101957 -0.0342032 
-0.0208535 0.0115404 -0.0339805 -0.0188507 0.0118159 -0.034791 -0.0218366 0.0128325 -0.0348247 
-0.0201551 0.0132731 -0.0343626 -0.0184045 0.0135534 -0.0346643 -0.0227453 0.0148181 -0.0342309 
-0.0214212 0.0160309 -0.0343631 -0.0196458 0.0150011 -0.0342555 -0.0185358 0.0162949 -0.035083 
-0.0223648 0.0175599 -0.0344931 -0.019735 0.0174291 -0.0340074 -0.0197102 0.0192035 -0.0342846 
-0.0179573 0.0192047 -0.0346769 -0.0245706 0.000944628 -0.0329559 -0.021393 0.00089635 -0.0329779 
-0.0180911 0.000896145 -0.0339268 -0.0234677 0.00212146 -0.0337467 -0.019318 0.00257577 -0.0333623 
-0.0242561 0.00367853 -0.0331786 -0.0222243 0.00317239 -0.0328183 -0.0217687 0.00521147 -0.0331488 
-0.024114 0.00547233 -0.0332818 -0.0183831 0.00632644 -0.0335952 -0.0240622 0.00739944 -0.0333174 
-0.0214611 0.0074702 -0.0335093 -0.019936 0.00680668 -0.0328332 -0.020591 0.00882699 -0.0327096 
-0.0188192 0.00813012 -0.0332983 -0.0240152 0.00920185 -0.0333583 -0.0221187 0.0097644 -0.0329956 
-0.017693 0.00972405 -0.0336824 -0.025128 0.0114444 -0.0325307 -0.0236555 0.0117127 -0.0336192 
-0.022119 0.0115336 -0.032706 -0.019273 0.0123131 -0.0331226 -0.0227472 0.0132432 -0.0333392 
-0.0244506 0.0141919 -0.033038 -0.0211737 0.0144649 -0.0334258 -0.0195702 0.0140417 -0.0327276 
-0.0176657 0.0146933 -0.033484 -0.0250169 0.0158686 -0.0326054 -0.0221754 0.0157949 -0.0327495 
-0.0203861 0.0159854 -0.0328823 -0.0236276 0.0163828 -0.033632 -0.0186489 0.0161892 -0.0332982 
-0.0223434 0.0176437 -0.0327086 -0.0176638 0.0176454 -0.0337226 -0.0240562 0.0189295 -0.033329 
-0.0223266 0.0192009 -0.0337575 -0.0208026 0.018501 -0.0330416 -0.0259846 0.000901341 -0.0318441 
-0.0225157 0.000899115 -0.0315798 -0.0197141 0.000893547 -0.0321531 -0.0176143 0.000989111 -0.0321967 
-0.0267198 0.00276381 -0.031228 -0.0253433 0.00250409 -0.032356 -0.0235912 0.00236066 -0.0319735 
-0.0207119 0.00238785 -0.0322431 -0.0189418 0.00241709 -0.0316154 -0.0180807 0.00381427 -0.0323347 
-0.0258762 0.00454252 -0.0319376 -0.0230827 0.00465818 -0.0320527 -0.020604 0.00418081 -0.0322588 
-0.0254125 0.00624186 -0.0323032 -0.022852 0.00641367 -0.0323877 -0.0211963 0.00616823 -0.0317411 
-0.0191634 0.0052476 -0.0323831 -0.0184012 0.00703774 -0.0319331 -0.0258623 0.00795773 -0.0319516 
-0.0241741 0.00870005 -0.0316417 -0.0225834 0.00818157 -0.0322996 -0.0255558 0.00971184 -0.0321965 
-0.019043 0.00971888 -0.0324979 -0.0235584 0.0105477 -0.0322638 -0.0206029 0.0106079 -0.0324497 
-0.0179779 0.0111632 -0.0326264 -0.0257454 0.0131329 -0.0320359 -0.0241288 0.0125377 -0.0315184 
-0.0223843 0.0129357 -0.0316132 -0.0209232 0.0128669 -0.0326533 -0.0184163 0.0130843 -0.0317424 
-0.0266862 0.0148117 -0.0312588 -0.0248563 0.0145234 -0.0313187 -0.0231402 0.0145501 -0.0318591 
-0.0213568 0.0146371 -0.0316445 -0.0188647 0.015355 -0.031729 -0.0261506 0.0175822 -0.0317148 
-0.0240913 0.0174702 -0.0322803 -0.0198383 0.0173345 -0.0318301 -0.0180979 0.0177832 -0.0319823 
-0.0255208 0.0191872 -0.0322227 -0.0237602 0.0191807 -0.0315771 -0.0219968 0.0192076 -0.0319007 
-0.019007 0.0191976 -0.0326329 -0.0273523 0.000904777 -0.0306758 -0.0242674 0.000892525 -0.0311963 
-0.0209024 0.00116635 -0.0308386 -0.0186316 0.000895079 -0.0307184 -0.02806 0.0026986 -0.03003 
-0.0251595 0.00231682 -0.0304507 -0.0243744 0.00376631 -0.0311746 -0.0225722 0.00329382 -0.0308312 
-0.0207646 0.00298829 -0.0305503 -0.0272496 0.0044443 -0.030767 -0.0255474 0.00469906 -0.0301829 
-0.0214804 0.00471324 -0.0307393 -0.0193621 0.00403361 -0.0309722 -0.0178531 0.00515298 -0.0311567 
-0.0242804 0.00563478 -0.0310454 -0.0196841 0.00593409 -0.0308026 -0.0268137 0.00670906 -0.031086 
-0.0251913 0.00718687 -0.0304776 -0.0234555 0.00722432 -0.0309159 -0.0271399 0.00860153 -0.030868 
-0.0229302 0.00884116 -0.030342 -0.0213027 0.00781797 -0.0310332 -0.0181628 0.00849595 -0.0307497 
-0.0254727 0.00916511 -0.0304923 -0.0215961 0.00957626 -0.0312959 -0.0198617 0.00899165 -0.0310731 
-0.0268269 0.010423 -0.0311357 -0.0240332 0.0102438 -0.0305615 -0.0224858 0.0110964 -0.0309393 
-0.0203912 0.0105919 -0.0304273 -0.0186564 0.0106571 -0.0310166 -0.0281529 0.0113776 -0.0299476 
-0.0269557 0.0122146 -0.031025 -0.025344 0.0114579 -0.0307496 -0.021239 0.0122683 -0.0304069 
-0.0198211 0.011952 -0.0314563 -0.0281318 0.0132029 -0.0299709 -0.0201563 0.0136672 -0.0307211 
-0.0224246 0.0141128 -0.0302662 -0.0280857 0.0150137 -0.030011 -0.020119 0.0159916 -0.0306177 
-0.0272671 0.0165522 -0.0307507 -0.0255162 0.0161319 -0.0308588 -0.0232777 0.0162376 -0.0312545 
-0.0215589 0.0167625 -0.031366 -0.0177976 0.0164621 -0.0307975 -0.0281206 0.0183812 -0.0299758 
-0.0241911 0.0176952 -0.030502 -0.0268998 0.0191117 -0.0310746 -0.025166 0.0192051 -0.0304618 
-0.0203071 0.0189977 -0.0313352 -0.0185828 0.0192063 -0.0308884 -0.0287135 0.00090397 -0.0294099 
-0.0263958 0.00114583 -0.0291714 -0.0246378 0.000914455 -0.0294499 -0.0198674 0.000896065 -0.0293961 
-0.0293363 0.00247047 -0.0287827 -0.0231144 0.00173879 -0.0301102 -0.0215089 0.00190893 -0.0293214 
-0.0190855 0.00245358 -0.0298258 -0.0263966 0.00325519 -0.0295277 -0.0238523 0.00325317 -0.0294909 
-0.0217892 0.00373081 -0.0292733 -0.017835 0.00371367 -0.0300826 -0.0288236 0.00465511 -0.0293146 
-0.0230984 0.00481801 -0.0299623 -0.0201475 0.00472885 -0.0295216 -0.027782 0.00605612 -0.0297256 
-0.0257173 0.0061113 -0.0290853 -0.0239728 0.00636839 -0.0294332 -0.0220725 0.00634194 -0.0301894 
-0.0292833 0.00650997 -0.0288475 -0.0266024 0.007631 -0.0294588 -0.0181476 0.00664122 -0.0302015 
-0.028359 0.00789686 -0.0297471 -0.0249362 0.00798709 -0.028893 -0.0199525 0.00767354 -0.0298528 
-0.0277054 0.00968333 -0.0295507 -0.0247264 0.00976553 -0.0289787 -0.0212172 0.00897258 -0.0296548 
-0.0194924 0.0093703 -0.0293544 -0.0292869 0.0101525 -0.0288385 -0.0264738 0.0109904 -0.0294344 
-0.0226606 0.0103054 -0.0293421 -0.0185351 0.0108876 -0.0292415 -0.0292484 0.0123247 -0.0288797 
-0.0243608 0.0115048 -0.0292451 -0.0229472 0.0124454 -0.0298384 -0.0187541 0.0124479 -0.0300989 
-0.0262628 0.0135058 -0.0299807 -0.0244714 0.0133903 -0.029977 -0.0292326 0.0141243 -0.028891 
-0.0184887 0.0142373 -0.0303742 -0.0263669 0.0152469 -0.0295431 -0.0238671 0.0151453 -0.0299501 
-0.0217483 0.0157364 -0.0299116 -0.0191442 0.0154434 -0.0292161 -0.0288663 0.0166597 -0.0292573 
-0.0249857 0.0163269 -0.0291483 -0.0272502 0.0173123 -0.0288171 -0.0258964 0.01765 -0.0299441 
-0.0224255 0.0176174 -0.0300496 -0.020618 0.0176892 -0.0301457 -0.0188289 0.0176828 -0.029974 
-0.029269 0.0191972 -0.0288617 -0.0265487 0.0192028 -0.0293155 -0.0234151 0.0191819 -0.0298167 
-0.0215844 0.0192033 -0.0300877 -0.0198001 0.0191999 -0.0295697 -0.0299726 0.000919678 -0.0281277 
-0.0276847 0.000944331 -0.0279381 -0.0227865 0.000899358 -0.0285549 -0.0180283 0.000903775 -0.0290288 
-0.025197 0.00235514 -0.0285351 -0.0183641 0.00245308 -0.0281777 -0.0296226 0.00400604 -0.0278423 
-0.0278026 0.00347901 -0.028428 -0.0202697 0.00304493 -0.028614 -0.0266847 0.00487927 -0.028202 
-0.0250836 0.00414846 -0.0285404 -0.0236814 0.00518371 -0.028095 -0.0185594 0.00454494 -0.0286692 
-0.0304417 0.00558922 -0.0276171 -0.0283378 0.00542457 -0.0277777 -0.0219929 0.00548686 -0.0286165 
-0.0204157 0.00632671 -0.0287607 -0.0186458 0.00632475 -0.0284507 -0.0270568 0.00666134 -0.0280171 
-0.0241644 0.00686837 -0.0277269 -0.0223767 0.00724098 -0.0286611 -0.0290919 0.00795769 -0.0278113 
-0.0274403 0.00855884 -0.0281735 -0.0232699 0.00879772 -0.0285665 -0.0208021 0.00798864 -0.0282192 
-0.018377 0.00799317 -0.0290514 -0.0304192 0.00915766 -0.0276349 -0.0181728 0.00951966 -0.0281415 
-0.0265957 0.0106885 -0.0276681 -0.0208757 0.0102512 -0.0284437 -0.0305516 0.0123921 -0.0274958 
-0.0275138 0.0120449 -0.0284076 -0.0257683 0.0124358 -0.028621 -0.0218325 0.0117585 -0.0286054 
-0.0201026 0.0118092 -0.0290961 -0.0239752 0.012979 -0.028292 -0.0212935 0.0134189 -0.0290337 
-0.0195142 0.0136536 -0.029009 -0.0177268 0.0134589 -0.0289486 -0.027264 0.0138213 -0.028524 
-0.0252865 0.0141752 -0.0285818 -0.0228243 0.014337 -0.0285365 -0.0299049 0.0156402 -0.0282001 
-0.0279302 0.0154725 -0.0282806 -0.0262523 0.0160038 -0.0279137 -0.0241361 0.0153726 -0.0278914 
-0.021155 0.0150706 -0.0283537 -0.0178286 0.0150119 -0.0280652 -0.0222322 0.0167326 -0.0285 
-0.020444 0.0166889 -0.0286653 -0.0178023 0.0166041 -0.0289693 -0.0302466 0.0173651 -0.0278319 
-0.0256232 0.0176802 -0.0281429 -0.0236897 0.0177403 -0.0287801 -0.030499 0.0192002 -0.0275488 
[...]
POINT_DATA 10000
FIELD FieldData 7
id 1 10000 int
838 1574 2541 7904 3472 4208 8251 7883 608 
5846 2770 8777 7746 5067 7172 9852 4129 9648 
1418 9938 642 7411 7372 1420 712 8064 9173 
6418 5841 566 9985 1362 1922 7196 2722 2849 
1658 7628 859 9589 4825 4265 9797 3196 9982 
9402 9735 6459 8761 5018 9631 3245 7838 4880 
2335 348 761 8900 3431 9313 2891 5030 474 
4704 2511 2559 2338 5132 851 9685 1146 3509 
8528 1441 4493 7019 1797 6697 2747 2422 4733 
717 3271 3163 681 2969 1106 8888 1819 312 
5701 8798 8776 206 5381 8901 9778 9783 4630 
1562 5087 5229 5345 1997 5876 6274 6058 2204 
1976 4016 1321 1024 8628 9178 6284 7289 8781 
8513 2887 5614 1940 6193 2758 9803 8986 2187 
9608 4871 8976 1074 5419 1204 2413 1675 1127 
2457 6155 3252 7327 7939 9622 5700 9015 1647 
4806 4216 6489 4558 7402 2138 357 5937 5703 
8258 8411 8385 8582 6082 9459 2971 4180 5341 
8817 4508 5832 5620 2502 5092 4152 3689 9584 
361 6796 4422 2505 9298 2089 5685 6163 2060 
9548 7233 6498 3847 5256 60 4053 5809 1513 
252 5233 9772 4046 5778 740 6520 9451 8760 
7340 2481 6154 9717 6632 7814 5342 9660 4690 
6153 710 3390 2340 4919 9594 1095 4506 3560 
1034 6991 5918 2925 9987 8538 1827 7066 6511 
8195 7435 6269 6067 7887 2824 3194 7837 476 
4747 3189 3053 9177 4007 7098 370 1993 8170 
6022 3208 5170 8826 5572 955 1642 8937 7041 
4660 6986 1067 4482 8148 9432 5872 7299 2532 
625 7839 3423 4337 1232 2594 2275 1395 4553 
662 6512 4541 2715 6169 8119 6609 3050 9574 
1955 2205 3284 8785 3973 585 7725 9682 1287 
4996 8984 3669 597 811 5044 4569 1358 4949 
1511 869 9978 3543 3772 1258 517 1169 3697 
7662 3815 877 3173 97 6294 4865 7256 3711 
9157 8641 871 5780 977 3756 40 7169 3482 
9746 8820 3020 1412 8627 2047 1520 7064 7582 
8490 699 5093 8430 9743 1153 7026 9642 2628 
4727 8895 3738 2132 4212 2066 1918 6677 6550 
9836 3063 3956 4636 6027 2294 1609 3538 5738 
9108 4073 62 9063 2562 1557 3018 9962 9116 
1421 2235 7864 194 5690 967 3681 1292 6720 
3327 4687 9877 3436 3473 2987 4369 7321 3718 
4198 6502 8816 7001 2094 5009 7876 3890 7781 
7421 3950 1349 9937 7198 1966 9331 1551 9542 
3335 4114 610 4776 1605 7847 9482 1070 7397 
4381 852 9335 7012 2068 3653 6521 8198 8154 
6425 8883 8180 1833 8583 6231 7034 3659 6902 
4031 101 774 1980 2150 9779 8946 9728 5799 
1078 4139 3842 5901 9883 3429 9753 1814 7840 
5467 5213 295 5249 1568 3198 3614 7503 2845 
9670 6006 7729 1879 762 6125 7378 3007 7523 
1579 9461 1929 8814 3806 1401 392 4400 6090 
1460 891 6327 4089 8806 2445 4696 4677 4514 
2550 9139 9843 226 2764 6653 2133 8396 223 
8143 6742 6409 8125 4831 5473 6218 1462 3389 
3035 4612 7216 7113 3488 2984 8904 5935 64 
9306 8803 2448 1518 6224 498 9870 7511 4842 
2633 2078 3517 7384 7296 2583 8156 9250 3996 
3733 9785 2102 5368 3265 8496 5403 1845 1745 
1272 9860 249 5687 8267 3785 5818 7772 9184 
570 8111 5 160 3495 6684 5615 6917 7069 
6623 1445 6408 4001 6185 1603 3059 3112 2605 
9008 4608 3995 6019 2809 9587 7916 2140 1163 
1311 8501 4635 7777 3072 749 54 2723 8041 
8728 1872 5770 8260 884 3116 487 7978 7603 
3480 4252 6532 3924 741 5515 3223 5144 5921 
3324 8362 8622 26 7762 2921 4795 5401 894 
2945 5025 9663 5358 8951 4644 9948 3651 2443 
9630 6192 9247 4239 9140 9944 4911 7118 5489 
4867 5314 671 8066 6996 4766 4676 6466 8710 
6673 9232 1685 13 9994 1041 7750 6306 394 
4434 3057 4844 2978 1207 8652 4413 2689 2012 
928 8045 9636 3925 462 4392 1549 3760 2018 
1442 1172 1143 1088 4146 7197 7347 466 1104 
2819 1274 8949 9456 5647 7 3621 5868 2694 
9644 7851 1044 1256 8563 3193 2634 1592 5051 
6547 3641 1893 897 4390 2258 684 8055 499 
7297 3527 9353 7977 3468 6086 5679 4428 2358 
9884 8089 4406 9333 1573 6336 5095 4547 433 
4926 2057 8767 3553 1228 2337 1027 6386 9698 
1154 178 7890 8275 9284 3798 9959 9872 5484 
4063 8212 1739 8786 3475 947 8954 4637 316 
9575 9175 9347 4611 9839 9555 4973 2617 2184 
8017 4596 2835 7075 7775 6196 9182 1599 7335 
2334 9661 6879 1690 1145 4443 1912 2486 6000 
872 6765 915 6299 4281 6713 6254 7592 7734 
7128 34 182 6 2934 5858 7878 553 6640 
4658 3427 3664 3313 1704 6772 4345 6345 2860 
7687 7186 3201 3216 506 612 3812 6063 2761 
3810 7744 3773 2681 5641 6575 4454 9885 3204 
668 665 2547 3889 1989 2232 3545 4551 5653 
416 2250 9069 1762 8759 9290 916 2589 9620 
9895 2531 2029 6839 9702 8494 1459 5220 6393 
302 8063 6179 6723 8766 806 1747 9813 9688 
1064 7405 9847 7163 3345 1841 6480 7792 2674 
8115 9373 2710 5373 5054 74 9658 4186 4201 
1305 209 9399 314 3909 2225 4211 7570 5823 
1495 5741 9330 5390 6564 6304 2325 5436 6049 
4438 8723 9275 7509 6087 5593 118 3607 490 
7696 1451 5469 2840 9195 9094 1338 5961 8843 
5600 1548 1192 3328 7929 537 9052 2013 1301 
6186 9665 497 9662 5198 5670 9262 1428 3040 
1931 6561 9680 6111 9939 5711 3639 2281 146 
9865 6482 7251 2757 3250 1105 7539 7016 8043 
1645 5632 3177 8432 8542 6099 1597 2748 2684 
1742 1352 5173 5189 6469 2006 7753 4639 5571 
5074 7043 7572 7415 820 5432 8911 3778 4575 
1670 4916 878 6932 6343 8751 6854 1498 5970 
3891 1402 7121 111 6275 2569 4441 3069 9350 
5657 8012 2091 6695 7655 1339 1006 6272 6529 
7953 2326 5538 7412 3954 6479 2484 7008 4852 
8356 910 1197 7723 5749 3289 503 8837 9529 
5583 4099 2903 8509 9343 3690 9777 5360 7194 
7608 5807 952 4210 1489 5895 1828 5080 9933 
1727 7739 4121 2847 2702 2862 24 4474 2931 
2949 9773 5410 3137 3425 5827 9244 216 2436 
3055 2180 3831 6615 805 8355 8110 4799 2350 
4994 2861 9531 8007 9237 2456 9774 6809 129 
5075 1212 5041 3333 890 7123 2172 4170 2567 
6747 1214 6431 8546 9033 7419 6619 3008 5339 
7146 2222 3622 7004 6188 7913 3805 2653 6261 
7764 7418 7457 9199 9766 4262 596 9953 1053 
4621 53 6066 6427 5318 8916 1957 6940 874 
8975 9381 7908 7485 7199 6208 5962 6603 6426 
983 2053 2349 5694 5384 8840 2234 4102 1602 
9651 8010 817 5000 1500 2948 6074 1903 9490 
6730 9425 9545 8460 5330 1862 8079 7487 6865 
4790 9256 5292 3596 7284 1482 9211 3753 414 
6060 3683 7368 7527 8268 7328 9988 3701 8423 
8921 240 6965 436 7301 3938 6085 6235 4118 
4292 6015 9153 4090 1941 8955 5509 3525 211 
6908 969 4267 1211 9103 7464 6411 3257 2612 
8809 674 8778 8956 2259 1494 6406 9355 4250 
8871 8208 9168 8789 5127 9954 2695 4194 9569 
7348 6909 5642 9637 3599 3147 1648 2499 451 
5338 4256 7313 3187 4906 2073 7151 1107 502 
8113 3494 5890 8415 913 9845 5568 8454 2145 
7620 3305 7852 7532 2513 3594 2924 7873 5351 
7674 306 2687 908 6293 8483 9281 5328 461 
1325 5511 120 5835 1241 3654 9295 9122 2973 
1723 865 8014 6009 7480 1246 7882 4588 3533 
5257 7815 4104 6967 4675 6001 8157 9050 3079 
5251 6324 7911 6760 3994 3552 6824 8316 567 
4333 4924 4221 8718 460 3788 9213 4366 2964 
3195 1985 5584 9269 9463 4103 2459 4421 2402 
3572 3845 5532 248 1935 7329 5802 8417 5100 
2171 5446 8242 3138 8898 7109 4938 4564 4922 
32 7350 9264 2366 1635 7826 6952 6884 8256 
3062 1336 8861 2086 881 2815 7771 1748 9999 
2651 1160 6905 1278 9614 2467 6919 4368 3401 
3124 8712 508 624 2707 2734 2425 9192 9687 
1269 1813 5082 5375 2116 9419 9597 7863 7459 
5228 2356 6344 7695 258 8600 6913 9018 2387 
3507 6201 7258 3855 2143 4492 7543 5570 5103 
9047 8653 8553 2518 8405 5885 1809 9864 9394 
6089 713 3899 7617 9310 9297 5055 2668 8264 
6219 8399 7396 5870 5116 2051 8611 3740 8480 
9241 3120 1743 3958 6516 9699 4158 190 5078 
4580 7442 5985 8832 2571 9980 9009 5366 7517 
730 6302 3700 5923 5847 1061 443 1835 3897 
1063 1221 41 5758 9351 4523 4417 8369 6526 
9036 4718 3980 5580 7460 2675 279 4030 2919 
5210 9338 6758 2025 1735 8503 6689 6008 51 
3117 1982 6892 5947 903 4768 3615 7683 4578 
1217 6776 8403 6251 6848 6525 3087 7021 1945 
7446 5542 7692 8983 971 4453 6781 5365 3634 
6961 6774 2440 7061 7491 9968 4700 8122 9689 
6202 1864 2042 844 3154 412 3874 9500 1329 
7455 3504 8601 4810 6851 9159 7344 2907 3096 
6305 5026 1529 5723 8909 8053 2936 3896 561 
9164 7493 8645 6579 9040 171 7811 5149 9949 
8868 6194 5019 5062 5125 5152 1948 6657 1355 
8656 3121 6295 156 4439 5686 4706 16 4902 
9167 5253 417 5133 9224 7176 1310 5017 1235 
6072 8536 5973 4363 5138 4786 554 1312 1203 
9058 8394 2768 5541 8182 5771 2260 8847 3202 
5789 7023 3294 8578 9391 2408 8982 396 6440 
6904 9950 3446 4230 2996 4634 1942 8491 2629 
7742 6266 5704 1015 4638 2487 1807 2920 2056 
8177 2779 1566 7273 5175 2098 3242 379 5337 
5066 6976 9110 3984 5589 3879 9503 7741 9145 
8184 6705 2522 1705 6501 4214 5331 6341 3408 
7308 6456 7986 4798 2650 6621 5705 5454 5349 
3184 8995 5414 9426 4004 2058 6487 7956 2784 
6665 8829 3197 3668 8730 8326 138 488 2898 
8252 4056 2097 275 9929 4946 5950 8497 9287 
1357 6535 8107 5597 9246 3550 9902 9674 7954 
5675 8243 2967 7936 2881 5811 5505 9544 345 
6264 5500 1859 6735 402 8087 1139 359 2627 
2781 9828 3941 1865 4183 7966 4707 6979 7083 
6822 2966 3782 207 923 6513 1717 6700 5200 
3540 2207 1490 4808 3705 8443 2128 5717 7478 
7280 8922 5498 8787 5761 3445 2598 8052 2343 
3819 9693 8281 8117 3725 9629 9977 9646 8191 
5740 3484 224 9572 9215 9609 4483 1804 9230 
7853 5529 7272 9719 2780 2514 7410 9428 4683 
6437 4893 909 6237 7111 2101 5083 1374 3986 
3969 2833 8451 7694 6924 1356 6843 7524 8020 
9348 4012 5714 2280 6308 1398 8339 4586 3752 
4981 9765 6228 4229 1766 9979 5587 4753 5319 
6681 366 6688 2189 9627 9823 9020 841 8099 
734 4939 8467 3213 7807 2223 4845 2530 4100 
4563 3907 6230 9997 7188 1671 6180 4479 8271 
3567 8029 5513 8863 7809 3046 6853 2161 7139 
7032 849 8021 4716 4481 2185 4367 9368 5032 
319 8370 2880 8325 7598 9384 3865 7875 9296 
3769 1245 5930 5421 9097 6339 8591 9541 9551 
8577 175 4673 246 8390 8401 9586 1126 281 
8682 8638 5202 4782 2830 8218 8775 8913 3013 
5651 7754 7768 3209 1908 2709 8533 6143 1503 
1644 6079 7153 5231 7013 3302 4719 9838 5022 
6816 9293 8768 6971 7451 2375 8220 2494 9497 
542 459 9526 9900 8048 8724 5450 4078 1140 
9360 6638 3041 9859 1613 1318 2301 6832 7612 
8259 8265 7428 8006 565 3306 2427 4415 3115 
4930 4802 287 6834 8683 8241 845 5796 6864 
2982 6691 283 5563 1277 3551 1289 2690 8435 
4207 9245 1890 9817 8885 1564 7403 7224 5226 
5214 8024 8941 4781 2112 9906 1990 4270 3983 
6307 2621 656 5682 9623 2717 2614 4861 1837 
9344 3784 3255 3629 9361 5959 1281 1385 5588 
902 6248 4862 1829 7710 8357 5669 8891 6574 
6159 8160 7310 7822 9141 4361 837 5412 8915 
7586 1124 2346 5596 3413 8200 1481 9669 6215 
5155 9815 5508 7962 6297 1873 166 3675 4286 
9830 4991 9354 4544 2497 5545 7183 5215 2233 
4082 5305 76 4977 6139 5395 2625 1391 3372 
729 4032 6911 6206 4475 1360 4823 4335 6198 
2038 1268 4694 9389 905 816 6447 8736 6801 
1444 2174 6496 504 8795 1580 8613 7002 3562 
8569 7263 9430 4396 6289 4116 9292 7489 6234 
6584 8967 1701 143 2677 9070 4641 6543 9652 
1876 4322 5715 4837 7306 3939 3870 9062 3317 
6291 7653 6631 5385 7740 7727 9695 7314 1141 
9502 6435 8344 8482 6645 8194 5269 895 5898 
4942 2972 1726 8631 6731 7602 9357 3970 4614 
6922 6607 9621 193 7165 3104 8013 4604 907 
3113 3883 9172 9191 2637 6280 424 4304 3586 
8515 115 2854 9458 6679 4982 8894 6016 1415 
5172 5239 2480 786 4339 822 3582 989 125 
4728 735 3123 7035 9941 527 5490 6220 420 
7458 1404 9758 8540 3481 9226 5972 5866 6855 
1601 5159 4325 2300 8700 6031 3433 6257 3199 
9285 1062 6137 4763 2909 4279 6636 6042 8161 
9198 8410 7558 8918 5977 5005 5926 2565 2309 
8943 3695 9309 4331 7989 3038 5861 2719 6560 
5668 4606 4743 8551 1122 7682 1086 7200 5881 
938 9580 8846 3103 1528 2431 3166 9436 1293 
8626 7808 7601 8734 5934 5629 5271 4420 1969 
4277 4627 6184 3083 7288 3444 1768 5168 7790 
9619 6314 7652 391 8602 1413 4832 648 1198 
2683 5476 5646 2389 244 3884 10000 1118 9028 
2318 7129 5609 7995 2064 9846 4399 7190 3948 
9030 1751 1265 8633 4759 38 9276 8123 6394 
1708 4562 3581 5020 8404 7587 3006 5549 5207 
8962 4189 9920 7376 951 7065 1377 4624 455 
1056 2126 2441 1008 1882 4370 8120 4689 9736 
9499 4965 7499 6856 5986 5976 2917 2470 8133 
8472 6606 7260 7268 3300 5997 9868 8312 7821 
3662 5291 8665 9923 6355 8939 3303 9340 1115 
3367 4546 9602 2574 6733 4950 8865 3323 3795 
1971 1815 9849 7374 9417 4464 4049 7124 6227 
3853 439 7559 7537 9886 8965 1776 1607 4681 
5863 6195 7576 997 1030 4967 176 6084 6128 
580 173 7467 9656 6047 605 4161 9947 1478 
7611 8893 8702 5635 6036 46 4900 836 4907 
7848 5857 8997 5873 3394 4052 5550 4933 271 
5887 9151 8741 1563 2575 6216 1322 1663 4321 
4092 7018 7685 9166 158 6993 4986 298 2219 
9833 2727 8042 277 4775 7743 7825 220 9106 
2168 2720 5333 5448 2846 8919 4772 7394 8335 
1238 5746 8516 2000 863 1021 9088 8964 8974 
2623 9019 2381 9055 6660 6149 7502 7377 830 
1983 9694 697 5989 9928 4084 588 6962 1622 
8886 7897 2399 9263 7982 3624 6463 9550 690 
2221 6712 7303 9067 2489 5346 2121 2524 3161 
6643 8594 4190 4692 4033 5154 5576 1320 9926 
9776 2548 5806 5315 8054 8649 29 2342 7164 
6122 2388 2864 5971 9054 2039 700 2592 4315 
6555 8145 9918 8280 5932 108 9726 1501 6988 
4749 5003 2330 8036 7311 4705 8992 1279 1694 
2359 6494 3464 7630 2407 3657 1288 3329 2192 
7973 8431 583 5860 5322 3230 2080 7955 5134 
1880 4457 3877 4954 9871 4709 2380 5951 3398 
8519 8554 7496 9992 5765 5274 8300 5153 128 
1791 2306 2216 8793 2526 6805 4957 6825 8299 
3435 381 162 9260 8629 9789 4788 6416 2666 
2351 7037 785 4360 2832 2237 6582 8716 2602 
9635 5595 5843 1738 1981 188 4684 7803 528 
3722 1700 5769 979 4652 2774 1539 5027 42 
9433 7204 6933 8752 6443 8630 6135 1537 7093 
5487 3568 3895 5902 3703 3649 325 4723 6837 
8025 6160 5523 282 8436 2122 6140 3702 1113 
4414 4619 3685 5447 2314 299 6037 135 2148 
6331 6530 6492 5622 3172 781 6787 9031 2836 
795 2662 3000 8448 4809 7818 6570 6918 8190 
8413 5910 3959 47 5108 205 4429 4769 3791 
4531 2647 751 5510 48 7644 3203 9101 3558 
2853 9126 7541 7192 8698 4863 522 4022 7143 
1960 3932 1158 9201 335 6262 8206 5014 5869 
2033 9675 3563 241 8550 4796 792 6666 7671 
7125 5531 7506 6488 575 1100 7756 8580 825 
6867 1394 9146 7836 6094 6032 5893 1458 9855 
4856 3054 8721 1054 904 3591 6315 8896 8917 
9756 1473 9501 9396 7605 340 4805 3852 5336 
4394 7079 1486 1687 6316 3185 9581 7463 3498 
1150 6279 1840 8297 4615 473 8835 7841 4079 
7931 5101 7958 9903 7521 5407 1710 8381 5150 
7866 917 4026 9705 3549 1167 8821 7676 5968 
8713 1341 3262 3395 1179 3437 2323 1430 9129 
3312 970 6869 3190 8598 4276 593 1148 8637 
5474 9910 4228 3503 5706 1806 4389 6981 7573 
437 79 3032 1087 2322 8293 1519 8867 9229 
8773 1485 3519 7780 7000 5677 5676 1657 8947 
3439 1954 9434 1715 1632 7371 9673 2075 4595 
635 6966 3188 661 3625 7634 1881 4254 7666 
959 3526 453 9316 2556 9671 5470 8994 1799 
3633 6273 7579 8056 1707 8838 1734 9984 3914 
2927 9796 2272 5192 5099 8852 4467 9162 2463 
5698 1730 8187 1323 2818 8866 2186 4232 2220 
2708 2110 3170 4592 9567 609 5981 5767 9706 
4469 5001 7483 189 2141 1091 7705 654 87 
8219 1839 5060 9170 3693 5727 1335 889 1857 
3915 5816 6773 5514 5475 7206 3968 260 714 
4418 5033 5744 164 7119 3966 2170 778 4785 
5658 6683 9400 8808 3944 5854 9934 7082 2698 
5287 2127 9121 1665 4720 3452 8833 7274 2383 
6534 7933 9520 1678 9795 2009 2124 5661 1792 
5943 7997 7385 8050 5874 9628 289 8026 387 
5650 7987 4 5427 398 1569 6366 200 5389 
8877 1370 759 3989 3365 105 3808 2701 3091 
8828 7832 4347 8134 2696 2460 228 3514 888 
5814 6145 8039 1069 6073 3868 7067 9915 5730 
691 9323 327 7660 4074 3997 1532 9535 8535 
8158 6240 4764 1049 484 6527 4423 1509 1844 
5795 2938 1466 4171 6012 1757 8034 321 3016 
6041 7135 3070 9171 2363 1195 2699 991 6178 
798 8310 9976 2798 3704 7227 9788 8340 4471 
9857 7202 1306 4748 1793 8604 3378 1128 4143 
2136 1181 2889 7381 8151 1752 5964 4336 9085 
2762 3592 3225 9716 7512 2751 7094 2081 2203 
7709 9255 9455 4029 3609 423 3274 6877 1369 
650 8696 257 8592 2892 4231 5166 1589 4817 
9507 7379 5560 846 3171 7731 720 7699 1178 
2706 8804 6023 7704 6630 6916 6888 5919 9320 
3515 9332 7669 4822 899 5408 8189 7386 9898 
3802 7278 5965 8590 9086 7796 7980 4054 1595 
2023 7326 5707 2003 3304 7359 3315 410 8211 
9485 2193 655 7552 3132 9914 8845 9639 4068 
6268 6260 6899 543 9703 5236 1497 9862 4072 
1333 415 2370 758 8167 349 3580 2096 3573 
5193 5420 7593 344 6505 157 2123 3536 6197 
1593 3393 2763 5672 8783 8753 1606 9848 5327 
6517 6097 9504 1134 8388 320 2998 5949 6592 
8074 9107 7885 1483 4740 3612 2450 2510 2209 
8320 1714 6866 4455 9701 9538 9966 6812 6963 
382 5417 3098 9034 3694 5953 4167 7434 6051 
9692 8873 6835 123 7510 7716 7505 4023 7063 
5352 7237 8978 1732 4273 9488 8424 3478 7324 
3231 9907 4602 9557 17 4576 5321 5920 3901 
3462 1252 5845 8032 9757 6038 2604 9208 3420 
351 2099 1531 6794 6096 5608 3686 2640 5429 
5010 3904 9450 604 2735 9207 4242 1875 9546 
1933 9922 6346 7360 6317 3600 9961 2603 7449 
2721 1820 1102 9363 1249 11 8484 1040 9894 
4433 3761 1457 9100 4064 9176 5739 8989 6551 
6478 8286 598 6256 1994 7596 4306 9837 1506 
9439 3379 360 9405 1729 9782 309 6726 1275 
2444 8075 9593 4283 9371 7830 9135 1709 7698 
5424 3666 685 1255 1035 8621 9042 8512 4972 
2008 9606 6616 3100 2241 6992 6889 541 7444 
6540 5539 1116 4340 333 3376 9082 9282 2624 
5695 68 5264 6239 920 7266 3447 6078 2678 
9851 237 1164 291 2994 2879 8421 3766 1017 
4826 8765 1944 4109 6727 6323 9816 5779 3894 
7703 7894 6719 5458 9243 9659 170 9842 7637 
1914 7417 1777 5850 7910 8619 5057 9522 9148 
8615 5136 8093 1012 3093 3767 2958 4087 9056 
4819 7927 6460 2989 8518 3978 594 3838 303 
4387 1019 6539 886 9911 2859 2433 1266 4206 
7799 3133 3152 7507 1014 1974 1092 828 438 
677 9908 7230 2521 8257 8095 480 5654 5673 
721 4643 5879 9203 3755 1559 6277 6062 1555 
1578 7828 9444 9006 5618 7177 7282 4459 4051 
1764 8733 9209 5822 927 6578 9249 4524 8756 
4625 8920 1132 5230 771 6819 238 180 8292 
6999 442 4691 7239 9253 8351 212 3347 7693 
5428 6802 7930 4450 9217 5889 6450 3530 2310 
7170 2478 1681 7578 6829 377 7248 9653 3460 
5140 7730 5590 1783 3292 3235 9853 8532 2922 
4807 8878 2600 106 290 5800 9523 3864 3613 
1257 1716 3219 8612 9527 6390 4714 4855 6446 
8744 7450 1468 7498 4628 3421 3015 3160 2959 
3817 7157 8438 3544 1558 5906 2213 7309 9460 
7678 2157 1512 7072 4011 3021 8762 4272 467 
1373 3508 3467 2878 9242 2642 8897 8412 9064 
261 1253 6732 9814 7626 6554 6610 9951 1852 
3441 3151 961 3492 6626 4043 4943 9856 8128 
987 9595 2584 356 6759 6757 4567 6927 8711 
8442 4024 5069 2724 9873 9415 7291 9863 4249 
6674 85 4613 8445 9383 9532 9346 9943 9528 
946 6739 4783 7029 5423 7171 4534 8579 3917 
1611 9023 8382 4662 4209 197 8671 4397 5196 
1379 8 5348 6970 301 1450 2449 4503 4892 
8981 9115 4115 4779 2482 4196 6088 4945 3800 
2641 4343 3754 9799 471 9225 3309 4964 9345 
2596 3077 1946 341 4015 2267 6748 8972 3176 
5203 7865 6161 8810 1361 2622 8347 6098 6124 
726 4841 9767 3912 6493 8207 6210 9579 578 
9927 9583 6522 4014 7259 8486 5774 65 9261 
8881 1754 1076 9600 3415 1448 818 9410 4668 
4461 8083 6985 7182 4739 7855 6553 9234 9027 
1387 1314 5591 6762 8824 7475 7445 8792 2452 
6649 3583 1631 7302 9958 9559 9454 4742 9565 
2680 1454 186 529 7086 3011 3074 9065 9802 
8147 2048 4645 8812 9791 3908 1527 6756 1162 
5840 4326 5794 1464 8092 7569 9248 5158 7158 
6034 5383 8498 9378 7156 2257 4951 6362 2822 
5692 1187 1850 7717 3713 9012 2718 3741 3224 
7462 6330 199 6035 3809 5520 7737 7431 1870 
7028 9691 3162 6490 6430 5299 4846 1536 1206 
8564 7529 7305 2367 9827 2855 9696 4582 6110 
6296 77 858 3237 2327 7736 9724 1240 8311 
6793 8758 6811 6823 9751 9288 7217 3348 6129 
5819 5379 7760 7500 9844 5186 7132 3830 4622 
6873 7022 7495 3963 6402 5659 1919 1866 4088 
9998 184 8072 6593 9165 9142 6278 1949 6602 
4935 4539 4472 4542 4754 3039 6438 6650 4356 
5334 4914 9376 8352 5791 5521 2538 8397 3469 
7215 7052 7005 6011 4854 3081 7891 5276 2215 
6287 9748 9762 3236 5638 6497 30 2520 5409 
6112 5434 6930 2856 3238 5139 9747 7508 3943 
9156 9633 6091 3684 7568 9515 7632 2108 3048 
3712 1367 8324 8996 2981 9780 8624 9508 4814 
3732 8632 7149 767 6744 5928 6589 5364 9786 
6893 7318 611 9134 9496 6668 397 9571 3836 
7535 133 8701 784 7361 6024 5623 1853 1263 
1782 6203 8236 3149 7133 2365 4990 3731 1226 
9809 9084 4365 5464 9832 8779 6010 5729 8140 
5310 1978 4141 5963 5283 3180 9147 788 9534 
7173 1567 6728 8931 8504 2652 5848 9582 9957 