# vtk DataFile Version 4.2
Generated by LIGGGHTS
ASCII
DATASET POLYDATA
POINTS 10000 float
-0.0177576 0.000976319 -0.0370659 -0.0188814 0.00359815 -0.0365219 -0.0186598 0.00537381 -0.0366143 
-0.0177988 0.00688523 -0.0370504 -0.0187824 0.00889103 -0.0365568 -0.0184526 0.0114696 -0.0367321 
-0.0180054 0.0146179 -0.0369463 -0.018073 0.0164156 -0.0369248 -0.0184679 0.0192049 -0.0367209 
-0.020962 0.000988061 -0.035355 -0.0193961 0.000904515 -0.036237 -0.0182206 0.00215495 -0.0357001 
-0.0203358 0.00293651 -0.0357195 -0.0202456 0.0053065 -0.0357745 -0.0211613 0.00675722 -0.0352421 
-0.0194952 0.00690312 -0.0361848 -0.0201113 0.00823394 -0.0351543 -0.0180065 0.00765091 -0.0354406 
-0.0208953 0.00982871 -0.0353968 -0.0190918 0.0100486 -0.0352153 -0.0200351 0.0114179 -0.0358899 
-0.0208067 0.0129758 -0.0354529 -0.0193359 0.0136153 -0.0362672 -0.0182034 0.0125705 -0.035337 
-0.0202752 0.0159674 -0.0357633 -0.0184468 0.0163213 -0.0351835 -0.0211035 0.0174858 -0.0352732 
-0.0194772 0.0175219 -0.0361909 -0.0200538 0.0192003 -0.0358735 -0.022653 0.000907909 -0.0343007 
-0.0193137 0.000897679 -0.0344414 -0.023123 0.00261393 -0.0339869 -0.0213818 0.00242518 -0.0343598 
-0.0192399 0.00268988 -0.0343254 -0.0229235 0.00439562 -0.0338806 -0.0215452 0.00412984 -0.0350037 
-0.0199118 0.00435532 -0.0342911 -0.0177756 0.00403544 -0.0351783 -0.0223362 0.00608159 -0.0340699 
-0.0195538 0.0063373 -0.0344778 -0.0219194 0.00849101 -0.0347648 -0.0228816 0.0102227 -0.0341406 
-0.0179125 0.0112521 -0.0341513 -0.0229277 0.0122429 -0.0341158 -0.0214666 0.0112747 -0.0344968 
-0.019712 0.0113339 -0.0341256 -0.0192818 0.0130719 -0.033976 -0.0230975 0.0140409 -0.0339956 
-0.020035 0.0144641 -0.034822 -0.0180924 0.0143577 -0.0351693 -0.0217786 0.0149247 -0.0348547 
-0.0206218 0.0160096 -0.034008 -0.0224116 0.0165611 -0.0344515 -0.019678 0.0179839 -0.0342338 
-0.018199 0.0183056 -0.0351951 -0.0231171 0.0192041 -0.0339915 -0.0216056 0.0191859 -0.0349643 
-0.0241125 0.00115954 -0.033286 -0.0208829 0.000897083 -0.0335616 -0.0199746 0.0023446 -0.0327334 
-0.0243685 0.00364111 -0.0331021 -0.0212925 0.00384892 -0.0332447 -0.0182316 0.00519222 -0.0338859 
-0.0242278 0.00542624 -0.0332006 -0.020758 0.00562957 -0.0333392 -0.0237241 0.00711099 -0.0335654 
-0.0208503 0.00754719 -0.0336675 -0.0248894 0.00817928 -0.0327045 -0.0232407 0.00878479 -0.0331196 
-0.0188806 0.0078945 -0.0338927 -0.0246075 0.00994346 -0.0329292 -0.0216211 0.00951859 -0.0328413 
-0.020102 0.00960805 -0.0338009 -0.018298 0.00957249 -0.0336329 -0.0244607 0.0117313 -0.0330305 
-0.0217896 0.0114841 -0.0327386 -0.0245674 0.0135241 -0.0329515 -0.0211041 0.0128429 -0.0336973 
-0.0212785 0.0145551 -0.0331667 -0.0243985 0.0156417 -0.03308 -0.0188091 0.0152583 -0.0337877 
-0.0193685 0.0167479 -0.0329594 -0.0178571 0.0172603 -0.03378 -0.0250916 0.0177171 -0.0325614 
-0.0233781 0.0175662 -0.0333115 -0.0212656 0.0176062 -0.0334917 -0.021811 0.0192016 -0.0327633 
-0.0200174 0.0191812 -0.0327382 -0.0184862 0.0192077 -0.0336732 -0.0261038 0.00089712 -0.0317567 
-0.0240002 0.000895186 -0.0315156 -0.0224763 0.000893209 -0.032516 -0.0204868 0.000893963 -0.0318105 
-0.0189121 0.000896473 -0.0326888 -0.0251707 0.00238911 -0.032098 -0.0233812 0.00241922 -0.0322295 
-0.0216021 0.00235938 -0.0319708 -0.0182009 0.002541 -0.0325378 -0.0264777 0.00343281 -0.0314325 
-0.0252929 0.00467912 -0.0319577 -0.0233788 0.00412345 -0.03167 -0.0194899 0.00406643 -0.0325685 
-0.0177454 0.00424387 -0.032184 -0.0237008 0.00638057 -0.0317793 -0.0223143 0.00534811 -0.0324328 
-0.0190432 0.00601435 -0.0325154 -0.0254216 0.00644324 -0.0322982 -0.0222556 0.00714028 -0.0325329 
-0.0205586 0.0068416 -0.0320247 -0.0182161 0.00763339 -0.0322465 -0.026412 0.00818424 -0.0314988 
-0.023707 0.00875192 -0.0313761 -0.0214593 0.00835537 -0.0314775 -0.0198452 0.00842477 -0.0324775 
-0.0252793 0.00961248 -0.0313046 -0.0185677 0.00936568 -0.0316194 -0.025821 0.0112021 -0.0319755 
-0.0230478 0.0103506 -0.0321353 -0.020116 0.0101554 -0.032092 -0.0185586 0.0109397 -0.0325041 
-0.0200693 0.011957 -0.0324792 -0.0259876 0.0130291 -0.0318426 -0.0230815 0.012685 -0.0323817 
-0.0214061 0.0131882 -0.0319722 -0.0183989 0.0127219 -0.032451 -0.0264663 0.0147276 -0.0314472 
-0.0244411 0.0146682 -0.0315744 -0.0227206 0.0144074 -0.0320248 -0.0195903 0.014198 -0.0325734 
-0.018422 0.0155211 -0.0320571 -0.0254277 0.0161727 -0.031705 -0.022864 0.0161712 -0.032311 
-0.0210337 0.0161599 -0.0322682 -0.0236985 0.0176467 -0.0314388 -0.0219507 0.0176451 -0.0318384 
-0.020114 0.0177376 -0.0316701 -0.0183797 0.0180841 -0.0322796 -0.0258736 0.0192068 -0.0319376 
-0.0240761 0.0192011 -0.0324796 -0.0265271 0.00089832 -0.0300189 -0.0219656 0.000895839 -0.0307932 
-0.0186709 0.000898199 -0.0306682 -0.0275767 0.00237484 -0.0304806 -0.0230917 0.00224994 -0.0304716 
-0.0197579 0.00229798 -0.0309594 -0.024768 0.00287876 -0.0304195 -0.0273478 0.00482165 -0.0306814 
-0.0216126 0.00404005 -0.0313398 -0.0202427 0.00520212 -0.0313585 -0.0258791 0.00587035 -0.03066 
-0.0241777 0.00546689 -0.0302608 -0.0224228 0.00558365 -0.0306515 -0.0177 0.00572824 -0.0311753 
-0.0273744 0.00685738 -0.0306651 -0.0248595 0.00745181 -0.0309191 -0.02278 0.00736029 -0.0305952 
-0.0210374 0.00697323 -0.0302996 -0.0192367 0.00659444 -0.0308294 -0.0277183 0.00858657 -0.0303407 
-0.0198421 0.00850848 -0.0306917 -0.0181405 0.00797253 -0.0304843 -0.0212121 0.0099484 -0.0306883 
-0.026974 0.0101384 -0.0310087 -0.0242461 0.0110384 -0.0309756 -0.0271068 0.0119863 -0.0309015 
-0.0213406 0.0117204 -0.0309518 -0.0195208 0.0113393 -0.0308834 -0.0180208 0.0123294 -0.0307212 
-0.0267356 0.0135553 -0.0301149 -0.0243537 0.0128219 -0.0311243 -0.0196659 0.0131061 -0.031155 
-0.0232633 0.0143445 -0.0302591 -0.0209547 0.0147321 -0.0311843 -0.0192562 0.014783 -0.0306076 
-0.0178166 0.0139992 -0.0313358 -0.027907 0.0149174 -0.0301716 -0.0271376 0.0163724 -0.0308734 
-0.0239683 0.0160918 -0.030584 -0.0221797 0.0162565 -0.0306529 -0.0202432 0.0162848 -0.0306242 
-0.0183409 0.01691 -0.0309293 -0.0280727 0.0177571 -0.0300215 -0.0261099 0.0178392 -0.0308028 
-0.0272821 0.0192008 -0.0307413 -0.0245327 0.0192049 -0.0307472 -0.0227982 0.0191847 -0.0312153 
-0.0210032 0.0192062 -0.0311608 -0.0191976 0.0192033 -0.0311394 -0.0283104 0.000889049 -0.0297997 
-0.024739 0.000967386 -0.0298845 -0.0230431 0.00089686 -0.0292935 -0.0203471 0.000892187 -0.0300183 
-0.0290181 0.00236949 -0.0290878 -0.0261784 0.00253678 -0.0293641 -0.0213554 0.00261456 -0.0302102 
-0.0185115 0.00251014 -0.0296609 -0.0285472 0.00403444 -0.029571 -0.0233286 0.00393008 -0.029888 
-0.0199502 0.00388696 -0.0301586 -0.0256728 0.00430223 -0.0298096 -0.0215973 0.004265 -0.0295549 
-0.0181966 0.00417556 -0.0304201 -0.0285543 0.00605091 -0.0295645 -0.0268417 0.00568764 -0.0291501 
-0.0200809 0.00559172 -0.0296029 -0.0269778 0.00755901 -0.0290653 -0.0253058 0.00692574 -0.029259 
-0.028895 0.00779754 -0.0292358 -0.0258875 0.00872784 -0.0298743 -0.0209945 0.00858322 -0.0293186 
-0.0289564 0.0095869 -0.029175 -0.0271298 0.00983938 -0.0292045 -0.0242734 0.00966473 -0.0298132 
-0.0225955 0.00904221 -0.0299977 -0.0197135 0.0100011 -0.0297043 -0.0179634 0.009622 -0.0297897 
-0.0282431 0.0110793 -0.0298611 -0.0257899 0.0111002 -0.0300544 -0.0226729 0.0108337 -0.0301359 
-0.0210954 0.0110744 -0.0292973 -0.0241319 0.0117759 -0.029338 -0.0186842 0.0114637 -0.029302 
-0.0284676 0.0132979 -0.0296523 -0.0256344 0.012696 -0.0289821 -0.0227472 0.0126279 -0.030123 
-0.0210586 0.013237 -0.0300345 -0.0193168 0.0133241 -0.0294052 -0.0250145 0.0140448 -0.0299922 
-0.0257309 0.0156904 -0.0299791 -0.0242803 0.015339 -0.0289863 -0.0217042 0.0149087 -0.0295676 
-0.0176124 0.0154128 -0.0302507 -0.0287864 0.0162504 -0.0293389 -0.0269411 0.0166961 -0.0291206 
-0.0188904 0.0162859 -0.0293414 -0.024865 0.0173132 -0.0296186 -0.0231662 0.0178852 -0.0297421 
-0.0214159 0.0177932 -0.0301333 -0.0195182 0.0178706 -0.0299819 -0.0178397 0.0184777 -0.0302121 
-0.0288437 0.0192014 -0.0292789 -0.0259028 0.0192002 -0.029586 -0.0241357 0.0192026 -0.0290025 
-0.0205762 0.0192045 -0.0294192 -0.0298167 0.000900179 -0.0282913 -0.0280386 0.000906905 -0.0280182 
-0.0262544 0.000894737 -0.0282514 -0.0244633 0.00089609 -0.0281155 -0.0219256 0.000901825 -0.0278885 
-0.0201649 0.000954144 -0.0282352 -0.01849 0.000895915 -0.0288785 -0.0302657 0.0025724 -0.0278104 
-0.0270625 0.00240537 -0.0277113 -0.0239293 0.00242184 -0.0288956 -0.0202282 0.00265913 -0.028817 
-0.028599 0.0033341 -0.02764 -0.027 0.00396514 -0.0286488 -0.025178 0.00354168 -0.0282599 
-0.0221989 0.00283805 -0.0286366 -0.0188983 0.00398101 -0.0287087 -0.0300305 0.0043349 -0.0280655 
-0.0283252 0.00504107 -0.0280983 -0.0235028 0.00417475 -0.028121 -0.020892 0.00406356 -0.0279152 
-0.0298137 0.00621682 -0.0282894 -0.0251911 0.0053393 -0.0284198 -0.0234905 0.00589193 -0.028657 
-0.0217275 0.0059583 -0.0289904 -0.0281527 0.00681362 -0.027936 -0.0224749 0.00757763 -0.028843 
-0.0202474 0.00709124 -0.0286215 -0.018549 0.00669921 -0.0291696 -0.0280952 0.00867272 -0.0278838 
-0.0250444 0.00844932 -0.0283191 -0.0233529 0.0087517 -0.0278124 -0.0191242 0.00842651 -0.0290509 
-0.0201714 0.00956728 -0.0280294 -0.0291757 0.010189 -0.0275046 -0.0254875 0.0101806 -0.0285374 
-0.022375 0.0100692 -0.0285403 -0.0184774 0.0101531 -0.028101 -0.0294746 0.0115593 -0.0286438 
-0.0276172 0.0121484 -0.0285663 -0.0261332 0.0116062 -0.0276448 -0.0225447 0.0118572 -0.0284908 
-0.0200495 0.0121251 -0.0282778 -0.0290104 0.0131505 -0.0279515 -0.0240137 0.0134589 -0.0286241 
-0.0183299 0.0126644 -0.028011 -0.0295202 0.0147501 -0.0285977 -0.0256632 0.0143813 -0.0283481 
-0.02281 0.0147068 -0.028176 -0.0213522 0.0136679 -0.0283217 -0.0178488 0.0142374 -0.0289153 
-0.0305314 0.0157781 -0.0275245 -0.0273894 0.0148863 -0.0284527 -0.0200103 0.0149312 -0.0289865 
-0.0288693 0.0164575 -0.0275566 -0.0241025 0.0171283 -0.0279994 -0.022782 0.0163296 -0.028938 
-0.0209713 0.016449 -0.0289896 -0.0296239 0.0177833 -0.0284964 -0.0274763 0.0175813 -0.0276566 
[...]
POINT_DATA 10000
FIELD FieldData 7
id 1 10000 int
7522 719 3453 2974 509 3570 4642 9605 3126 
7365 4918 7689 7813 8313 7670 6472 8790 9268 
2899 6175 9790 8695 9118 1652 7732 7400 8173 
670 4225 7565 6715 6795 9045 4820 2100 6585 
4774 2462 1614 1600 2655 3218 1561 5122 3293 
1505 4812 2291 9349 326 7642 8334 4866 3708 
5029 9130 7333 4680 791 2686 7039 8822 452 
4305 1202 2772 5260 3539 4667 4125 6771 3516 
3002 421 2439 1183 441 1065 2509 4494 1623 
4374 2697 4218 3859 8175 273 2117 7518 4036 
7918 7604 2908 523 7383 5732 974 638 7788 
1366 4682 4511 1491 4925 4649 8302 2240 4037 
3933 331 8225 4537 1136 5431 3233 1651 6225 
2307 3443 1771 45 6150 2226 411 7998 3107 
8705 853 2906 7761 601 3153 2017 8418 945 
507 294 9704 3051 1096 5194 1868 659 8361 
3837 5135 9821 893 7923 458 3307 2303 153 
2910 9970 5938 6659 3811 7758 63 5452 773 
4647 7981 8763 2582 4280 177 7185 5015 6423 
1887 7992 6148 4554 9971 1026 8859 4008 4549 
5605 3110 3645 8502 4833 5478 3598 998 8008 
4025 9784 1770 1082 8925 322 8481 5355 485 
547 5766 4548 4721 3417 9924 1691 7038 5259 
5612 3344 6458 4271 9750 1821 6859 3261 651 
7484 5040 7679 7681 3839 1753 7824 2238 1526 
2607 2154 4931 2631 6229 2534 3987 8203 4226 
4480 5599 161 5121 8882 5644 4853 6259 6620 
533 5301 1640 1767 8585 3559 7629 7070 5617 
7658 3181 5042 8479 5606 5504 1194 4777 8210 
1984 7076 2937 7389 6982 500 7749 5853 3671 
6415 432 3585 1348 9668 2914 2104 2929 8322 
6596 9487 5577 8970 3205 5266 3803 3632 6321 
4278 9709 752 3470 9676 763 6369 9 3565 
3391 5763 6388 2962 8005 2163 922 7088 4217 
4314 9079 6113 6147 5724 8378 5709 7358 4195 
3745 3471 7778 7427 7025 1259 5836 2155 7975 
5371 7783 4530 1264 363 4966 5232 5998 4448 
2297 4352 3399 1347 2411 3961 267 6464 3497 
9294 5261 6852 572 6174 1502 3786 5643 5540 
479 3430 202 22 1590 352 966 1996 6288 
8466 6271 4410 9193 5270 5222 6375 5311 470 
1826 4540 5398 9810 431 3871 9422 7787 768 
7549 7423 4263 9533 715 1343 7688 4528 4724 
6348 1080 7971 6599 7648 3783 4003 2230 4108 
5499 141 5056 7868 219 6422 3499 9744 4881 
6770 4289 9611 7469 4585 3522 7823 9536 6743 
5839 3273 4284 8658 1243 3869 6080 5764 9076 
9393 6938 4712 2825 9223 5445 18 9887 4657 
8425 3140 577 9305 4533 2289 3576 4726 2286 
9603 9174 5361 7659 1261 1363 5946 1572 1237 
6960 3105 1001 6698 6241 3957 9592 1937 9388 
5803 8318 8560 8929 2731 3084 5277 1389 8772 
3248 839 7453 544 2730 8124 2087 2026 422 
5813 2793 3577 1419 3900 4904 2888 4757 3534 
5073 9486 4205 1926 6382 1871 5894 6754 2794 
2785 8791 2162 84 234 4083 5248 826 4411 
4199 4101 9518 6168 6542 5525 5798 3975 7751 
9341 6373 75 9420 4787 7312 4236 100 1098 
1849 4287 4255 5442 1334 347 6481 2871 4379 
3569 4915 7243 2716 104 5433 2714 3976 7168 
9775 4349 6232 5517 1970 3214 5712 9356 3578 
9543 4193 131 8038 9904 5990 8317 1397 2950 
1350 5143 2688 5320 5752 114 8226 3438 867 
4085 6421 9212 4086 1111 7184 2901 1254 10 
9613 653 489 1209 885 3955 1007 2503 702 
8525 4998 5285 8204 708 802 9712 9624 8573 
429 1801 4836 3926 7555 7492 5565 2831 6515 
7519 4688 7242 3723 562 1484 4173 6075 4150 
2069 5191 405 7317 5438 3758 675 4522 4570 
8188 8367 4731 3480 4157 4626 4142 8523 649 
5611 4412 1706 4899 7530 218 2541 5770 6968 
9956 2904 7261 5294 5451 1193 2239 6028 7904 
9008 2007 3524 7874 9892 2140 6467 2131 1972 
1812 4208 4597 645 2078 9811 401 9808 3673 
152 5058 4795 4257 4983 4105 5948 7883 5820 
3244 833 9119 608 4711 8321 7145 3388 9678 
8928 6457 487 5944 4138 3541 7798 7762 4520 
3168 2361 8393 2770 4635 5148 4978 6380 3342 
7416 5530 838 6532 4019 4181 9737 1684 7746 
3059 3027 2851 7448 7081 26 5562 2632 3106 
9041 6566 1574 8951 3814 2849 8260 4745 7257 
1896 3373 1979 5702 4129 779 9684 6211 9852 
4473 2990 743 3472 8803 9909 5884 9938 2397 
2792 9221 1834 3264 8251 8041 4722 7209 5356 
1208 6594 5896 3780 7372 5 8622 1055 2308 
5680 4875 1 2743 346 2228 3265 3426 4618 
1121 5048 4240 5846 1311 4873 2438 7150 285 
9173 7247 6311 8746 545 8647 512 6258 8777 
2891 5144 8278 89 724 8584 5208 8841 9985 
1362 1750 6557 5035 9723 6372 7196 9754 9438 
1108 8333 5067 5401 9745 2493 1036 1085 7172 
8654 2930 6335 2175 6081 2883 1302 4192 4309 
4265 3223 9411 1125 2506 2395 9781 7019 8831 
4686 9181 5114 8836 6507 1418 4644 1010 9301 
2742 642 9735 3266 5582 4801 1925 5018 8419 
3056 8456 3746 681 5862 9861 8279 1420 7701 
9257 2560 4880 712 8798 524 4909 5736 6597 
6364 5996 8121 9358 8900 741 5459 3571 2062 
6014 694 5841 4630 9513 8555 3215 566 474 
7916 5751 4877 8959 7413 9143 3122 1922 5876 
8396 6102 7393 7944 5254 7628 859 5132 5687 
3142 2669 7091 9589 599 8743 7315 4737 7047 
8694 9648 8528 1603 3631 6209 337 9797 4155 
8035 9964 9982 1940 749 2071 1048 6900 9402 
2422 570 9413 9993 5161 6499 6459 8761 160 
2129 6997 6995 7411 3112 2918 409 5915 6875 
5369 7838 5733 9327 7010 2227 1863 3245 312 
4252 5634 7364 1273 2335 348 3389 2090 7339 
3628 8064 761 7327 7074 324 4291 7922 6418 
9313 9783 3785 8237 4430 2403 8935 1997 9587 
3818 9336 2504 8648 6942 618 1431 9484 2722 
2559 2204 5703 8501 9893 5219 1024 9996 56 
581 9618 1658 9685 1146 8628 2921 3678 5988 
727 2355 4825 4149 682 6363 3509 8513 9807 
3465 2261 3196 5614 3689 8853 243 7501 9462 
3156 4932 4701 8986 2187 5921 5552 8314 4061 
4599 3271 3163 5267 2976 4018 3962 4620 782 
9631 5419 8496 6389 8620 4028 8850 8888 5256 
9190 7785 1675 1127 6156 8330 5437 5463 206 
5381 54 1668 5031 383 8294 8568 9015 7772 
8805 6706 5547 7581 6061 5030 5345 3924 7201 
6475 9194 4704 2511 6632 1260 2776 7849 5937 
9785 7574 3296 2338 4016 1321 8411 2605 3477 
7473 3251 851 9594 4829 6789 378 2115 6134 
7289 5341 5615 1610 6563 7540 5050 1441 4493 
5832 9860 7942 8823 8646 6898 37 5376 6697 
2747 2505 249 5151 3813 6286 4733 6269 1222 
5754 1521 717 2089 3194 551 6950 3601 1106 
1074 2060 4001 9738 127 4927 8338 1819 3847 
884 9560 5177 5164 5701 8170 6185 8440 9049 
4071 8776 3252 252 5233 2809 2379 9308 607 
2406 7429 3431 9778 5700 740 7041 2410 15 
6857 102 5645 4962 5087 5229 7340 6986 7069 
1176 5455 368 8169 6489 4558 8222 6058 357 
9660 2532 762 3867 9273 3456 1976 1232 1845 
2676 1952 6133 9392 3560 5368 8132 8664 7793 
6284 4180 2715 5491 535 3875 4508 2925 8119 
9679 2339 7925 7319 8246 2887 5092 4152 7066 
4608 3873 5708 6503 1797 4422 8785 6027 4738 
1798 2320 7805 2758 9803 9682 5748 8976 7725 
6653 3616 7355 6500 5308 2969 3189 1358 3368 
8376 3992 6498 869 7221 1653 3380 2413 1993 
2723 703 5110 6448 1586 2457 6155 8826 5572 
3815 5878 6740 7724 3531 8901 9622 3711 6183 
8635 9451 8760 8244 9254 8474 4216 9717 8148 
1412 3890 2654 6798 6274 5342 2564 8258 3390 
4337 1551 6588 4172 6717 8255 4835 6082 9184 
4106 7804 9178 2971 4541 4727 1295 2543 8308 
8781 5918 852 9876 505 9443 2502 1827 3050 
6550 8154 2284 5825 8391 7014 6796 1872 2183 
2134 6193 7435 585 9108 3888 1683 6931 5089 
4871 5685 9962 476 4747 4569 8051 2848 7476 
6059 7233 1511 5690 967 7387 6954 2896 1204 
4053 370 4687 2324 1326 5170 6408 9407 2952 
2626 6244 7939 5778 8937 7256 4198 3495 201 
9091 8239 850 4806 3756 40 5009 6684 576 
7471 1562 6154 3020 6045 633 6817 7402 2138 
2047 2102 5492 7454 710 3423 5818 9095 558 
4959 1131 8385 8582 1395 8430 4776 2613 7342 
9459 4506 6512 2628 6337 8213 8407 8817 6991 
4212 4381 3337 6519 5775 5620 6677 6742 5240 
731 361 8195 3284 1833 1445 8609 8090 6067 
7887 3538 5738 4612 5817 2777 7959 8984 9779 
6623 1854 6946 9608 4139 4344 2729 1932 9548 
9177 4949 194 498 58 7098 3772 5467 5213 
9495 5526 2957 3359 5809 1513 3697 7662 7503 
8362 7957 4046 6294 4865 3718 7729 7463 128 
7791 6033 4660 977 7378 8448 5211 6926 1647 
2481 8820 9461 7079 8677 5872 1349 1401 3722 
7362 4690 6153 7299 7582 891 1041 4616 4919 
2275 5093 3995 4952 9154 9155 1095 9482 226 
4413 5372 8470 3945 3557 1034 7397 2764 8992 
7131 8538 1918 8198 1628 4556 7533 6233 9584 
3956 4636 8728 2647 7782 9298 2205 3973 4031 
7978 6825 2306 2585 4996 1557 3018 5859 6591 
5117 6163 7837 5044 1421 8904 4360 2744 5995 
5347 7864 6224 7461 7287 60 3543 3327 7840 
7603 6568 5684 5899 810 3208 1169 3614 3996 
3733 7976 3466 9307 3269 9772 1642 97 7321 
6006 1745 9140 1317 6788 5238 6520 871 5780 
7001 2094 7803 5314 4394 3226 9037 1225 4482 
3482 9746 8111 8341 9112 7814 9432 3950 3806 
6917 3736 7903 7624 7064 9331 1460 6867 3374 
5456 9183 2728 2340 2594 2445 5531 7836 167 
9283 662 9642 7847 9843 1163 8917 2191 2132 
8143 4392 667 8150 9987 6609 6521 9433 1143 
2643 9185 3742 6511 1955 1462 6358 5038 9710 
6902 1599 7006 7857 2824 1287 2562 2150 2984 
2694 9365 597 811 1078 2836 8526 9158 9149 
3053 5901 1518 795 7928 2765 4007 3324 4390 
1313 6949 2468 7482 3436 3198 9250 7644 8698 
8129 9448 5332 955 4239 7687 7443 2279 8365 
8284 8641 6125 8267 400 1554 4659 1067 6466 
9540 8814 9396 4676 433 3773 151 7839 1520 
1966 6090 7955 1027 5653 3618 8905 610 8806 
47 3057 2268 3279 4553 1153 7026 2550 9139 
42 1739 3807 6105 8895 3738 462 5510 2939 
3653 223 3072 9836 8180 3063 6218 7347 1172 
8017 2076 7095 6485 3369 2294 1609 3659 9456 
9182 1627 7042 62 9063 1980 3488 3621 5868 
1033 560 2657 3669 5799 5515 6765 6377 1083 
2235 6720 2634 1592 5553 2823 1292 9753 1814 
2633 897 314 9342 6022 517 9877 2583 8156 
8580 3000 3664 6037 3796 5551 7735 3173 4369 
9670 5403 9201 9247 4428 4438 781 6523 9157 
5489 4867 6063 3607 4124 2019 7876 1579 7744 
9317 6205 7169 7421 8627 1929 4022 8767 4551 
625 7198 13 9994 537 5843 2298 8490 699 
4114 4089 4434 3798 1054 8299 5167 1605 8652 
8212 2589 1428 7290 6169 7012 1738 9636 3925 
4637 5807 1760 5567 2068 9839 2757 205 1855 
9574 4831 5473 4863 7197 2184 1830 7034 3498 
3116 9146 9847 2314 1641 6365 4073 6196 6480 
7792 3685 5880 9728 9306 2637 1044 872 7580 
2448 7592 6492 7143 775 9978 3429 4842 4689 
1893 6 3054 1510 8469 1258 1568 7296 3527 
3427 1495 8565 877 2845 4809 6192 6086 5679 
6049 9010 5502 5495 6502 8816 4796 7506 3812 
118 6695 5354 7523 9501 8066 6996 4766 4547 
2840 8190 2057 9885 7412 6410 1626 9937 7125 
1685 8603 3335 6327 1288 8275 9284 497 8837 
7481 2133 1473 1207 4063 299 6622 9743 1070 
4514 8045 947 8954 9375 2066 7467 1442 9347 
4611 302 5711 1828 3102 6019 8883 8125 9813 
7016 1694 4968 8583 6231 3444 8949 7775 1747 
6099 9096 774 7216 7113 3932 7 6879 5173 
9244 3791 8670 9116 8946 6000 7753 82 1150 
8436 3193 8115 1670 792 3681 9883 1486 3641 
9399 4575 6085 6001 9442 5249 7384 2342 4658 
5823 4170 6570 2293 3473 2987 4805 3468 2860 
5436 6275 5339 7464 6050 1687 7118 9333 612 
6261 8778 6918 5469 7457 259 7781 5622 2337 
4454 5600 9355 4400 9855 3545 7929 5318 7908 
5100 9395 4651 9542 522 7890 9665 503 2499 
7109 4677 5986 5484 916 9262 983 2012 928 
5670 7194 7608 2053 8415 3897 9335 6316 2018 
6393 9939 9425 1500 148 6425 4146 806 7539 
2924 1235 3035 7405 2862 6865 4790 8483 6526 
101 4705 1912 1352 5827 9211 64 7851 2486 
8355 8014 3842 3185 8563 6254 5054 805 8423 
7511 1122 6547 182 3778 2456 8983 295 3517 
499 7297 6640 7570 1498 2172 8955 5108 9380 
6135 2853 9630 6345 7121 111 3008 9103 2518 
1879 3563 4911 506 6087 5593 2091 674 3195 
9310 3007 4769 2662 6673 5095 6406 3120 8843 
5538 6427 7396 4557 392 3172 6306 1228 2232 
3328 5642 9756 394 2250 3289 1197 2073 8898 
156 8629 9872 5198 6426 8256 5923 4696 2029 
6111 5360 2234 3959 2689 5220 5000 6730 2815 
8369 6409 9675 6315 2617 8766 1105 7251 3594 
4049 2819 1274 7075 8542 7487 1482 6293 1278 
8394 1100 1841 1742 3425 5835 8503 5935 4443 
6615 9192 3087 7023 1256 6713 5373 7043 7527 
5228 9870 1293 34 1305 209 8911 3938 4675 
9581 8055 553 4211 6854 7123 1941 7543 2779 
904 2443 7977 4345 6304 2325 6619 412 6976 
8089 4406 8012 2653 1494 8809 7617 9145 241 
671 6336 6575 1451 4103 8053 9040 6094 8710 
1053 9241 4158 4856 1989 1192 910 2326 6909 
6066 8417 8591 1154 178 416 6186 9381 4906 
3138 5125 8832 2533 825 2978 9959 8509 3187 
6665 7756 2531 9680 5384 8840 1835 6295 4723 
3760 9175 1459 6482 5895 817 881 9555 4973 
3250 9490 908 2513 5580 5017 6524 6140 466 
1104 1064 8432 1735 5647 2684 3137 7284 51 
5505 1145 3831 1723 865 335 751 5074 8007 
9988 3701 6525 2781 8550 7128 4201 5432 9237 
6967 9018 6266 5765 684 7878 8751 890 4090 
7911 7491 6700 3651 1704 6772 6564 1402 7419 
4924 8553 7478 9944 9884 3216 7509 5657 3805 
2612 2964 8399 7741 2343 7696 7308 1158 4926 
5641 5961 53 9953 2259 3845 9232 3889 1548 
8356 7348 3572 5802 9699 6579 7750 1301 874 
8975 1648 3184 4844 8759 9290 2903 5962 6884 
3121 138 3475 9895 6561 9777 6603 1310 1549 
9865 1489 2145 5950 7524 1088 6723 2847 6905 
7954 9661 9688 2702 8079 2687 8712 2025 9058 
5319 5291 1690 2006 5410 3596 3615 5789 5811 
9644 2674 2180 7368 2973 6131 6299 4281 5571 
7459 396 5051 4186 9531 7301 4104 6913 3446 
7083 2258 5858 6343 3333 6324 4492 2056 7061 
8177 9948 9353 8903 9033 4267 1211 4333 8653 
3154 6853 2690 2358 3201 9350 7913 5059 8076 
7525 6272 7418 9463 8052 1338 7953 8789 7329 
8480 8909 8164 3553 665 2547 6516 9230 9698 
5749 6940 5985 8656 2784 5344 766 4099 6208 
7350 9167 934 9969 1931 3494 5890 3700 2346 
8315 9575 8494 5568 8454 4523 4417 4586 4571 
4121 1903 1160 5138 5155 3302 7178 2835 3177 
1862 6758 4753 5146 2334 3345 2748 1802 5292 
5511 120 8581 6469 2350 3683 9419 4768 2881 
5395 1272 7466 7882 6848 2408 8982 8467 4401 
9658 2861 6965 436 8600 7742 640 2225 6932 
5041 9153 2440 6979 6326 1492 3455 9801 5163 
1142 1514 2610 5066 1639 7946 8271 3322 4175 
4366 713 3899 1705 7403 2593 7935 4081 6801 
4632 7343 1393 3501 6219 7142 5740 6339 5804 
3489 7554 4194 8165 1686 6621 9428 4605 7985 
1103 7313 8945 7442 7589 2945 5588 7765 4069 
894 6302 3969 8218 9352 4409 1331 9512 5273 
9891 2546 837 9429 1156 3790 8717 3414 3403 
7077 4614 6400 2920 1229 7195 4985 4363 2375 
5237 9663 6043 4020 8908 5128 4500 6569 9674 
9172 9390 2425 6139 6297 9489 7777 6881 3241 
882 5358 8048 8880 1246 4200 2627 6638 1406 
5084 4055 2629 4100 2842 4460 8085 530 5994 
6939 1130 5025 930 8033 125 569 313 1307 
3115 4623 71 2072 804 5741 3891 1214 6908 
969 8316 2042 5337 5717 3046 7176 8723 4441 
3622 3788 6089 3504 2598 9368 5032 490 7655 
9269 7875 4641 9195 4262 596 8208 8611 7344 
3408 1804 3204 2484 4621 1935 3740 2650 246 
9052 3147 8242 3958 5019 2830 8344 820 9069 
9529 5583 730 4902 6657 3040 502 7826 8113 
443 7768 1528 9373 6839 4210 9651 8861 5758 
8326 7013 8063 3639 7532 306 6535 6843 4627 
5251 1597 8460 5210 1203 5587 3690 5189 2931 
461 2734 903 8847 2497 2436 9295 5375 8403 
402 729 9351 8484 8110 7480 9391 4939 4580 
7572 8921 7815 258 8491 4707 7739 4916 129 
6015 9050 3079 3855 6961 1807 4479 5723 6220 
5970 211 6824 6202 1864 379 1289 7163 2569 
2222 460 9864 9394 9503 2949 8956 6851 9159 
8325 5715 6529 2402 5584 6431 3954 6479 2695 
248 8645 6341 4483 9344 7723 3599 5078 6194 
7410 7727 5338 32 7517 4782 8891 9340 668 
9343 1107 2349 9845 1635 16 8730 1503 952 
1602 9999 41 9929 1356 3970 9849 7852 4718 
1357 8339 9249 8043 9933 7674 2919 3401 7451 
7962 7537 24 4474 414 5351 5328 5082 5947 
2260 366 3586 4799 216 6060 2707 6735 9360 
6016 4639 7328 6009 7863 6776 6198 8702 5257 
7695 7692 7966 7612 1751 1265 5694 6809 4292 
8157 2487 845 4562 3980 6747 3525 9047 3552 
9689 3242 2128 7002 7146 8718 2522 3879 3445 
4367 1564 2909 2668 3725 9766 4421 1985 5331 
2880 9070 3983 2470 9338 9954 5446 1743 5026 
3695 9868 1957 5366 8868 2514 4673 1385 7004 
4564 4922 7956 7754 5669 6435 9019 3032 4706 
3668 4361 4942 8716 4102 913 1336 6924 5080 
2948 5973 9287 1398 5231 3883 6712 9545 7873 
554 1312 9979 6074 9256 4368 6008 5771 4544 
648 3568 3753 1813 6892 1859 4977 8893 8268 
3654 9950 5239 5062 4994 3533 6344 5542 1942 
4183 2530 4335 6555 9774 4118 7258 3634 6513 
8241 5490 4933 4749 2567 5509 3994 2098 8443 
3551 7630 6386 1809 5589 5761 2185 8885 4624 
7764 3257 8117 8024 7489 9569 3909 9199 8871 
2459 2051 6305 6705 5977 4965 5075 5127 7493 
9609 9097 1837 3202 8916 2171 190 9009 9949 
4798 2780 5202 3317 7485 9980 6487 9412 7008 
451 1061 5686 3986 5898 4950 3519 6179 2366 
5133 9224 275 6143 7165 1815 5590 7620 3305 
1748 8768 7652 1981 6919 4030 9902 6971 4304 
2524 4389 9281 624 2967 9526 9900 76 6774 
1241 1269 8182 8578 7936 244 184 4578 1217 
6904 734 6832 7611 1335 4588 2356 7446 4634 
4845 4415 9030 7605 1212 6235 6201 5365 4638 
923 6180 527 9162 6760 5103 8122 5175 8863 
7809 8613 5549 6855 170 6411 8405 5885 9817 
9292 3313 4250 9297 5055 4810 8184 2677 298 
4214 8370 4270 4322 2710 9637 5116 561 9164 
8191 5421 4861 7177 5149 5349 9719 1281 5746 
4938 5847 1948 2058 8638 5881 4606 9773 7151 
1374 5651 9357 8808 3062 1221 2097 6308 9669 
5934 9263 3452 1727 9036 8536 2280 1766 6215 
6314 8546 2467 279 3550 4229 5508 9354 6084 
635 508 459 5806 1982 9823 8894 4740 3294 
359 2301 3372 1762 1865 2223 989 4315 2927 
3507 6781 1015 207 8683 8736 4414 7415 4700 
7273 3705 1580 5866 3464 3810 4221 1329 7455 
3984 4481 9285 1377 7521 1532 8601 3096 8281 
1990 5951 3838 3693 9922 5532 5930 2614 5668 
8943 844 4109 7811 9215 8682 5959 3303 8793 
2323 2571 5152 4004 895 9928 162 1325 9264 
417 3197 3013 9141 4792 878 8252 4056 8533 
6733 2698 7771 7460 5714 6816 9293 8734 7559 
1933 1181 9614 2675 6228 4832 1607 2121 3021 
2768 5541 5305 661 9894 9687 5500 1318 1140 
2318 605 8056 9597 3117 6440 1139 2427 2548 
2651 1945 2996 3306 4823 4907 1752 4206 2387 
4453 1671 6834 1708 6988 4467 3694 567 5570 
9968 1490 4808 5563 1277 5972 3006 8873 6630 
5632 9500 9110 4716 4116 4370 4986 5759 609 
8264 9977 8787 5214 1890 143 220 1880 5870 
2907 9646 8918 5330 5705 7986 5997 1238 8300 
5454 9361 7200 1857 6188 281 8357 5269 5989 
381 3503 2193 4439 5083 1124 3103 6251 1063 
2709 7602 2761 6072 4012 1481 4277 1593 5597 
9246 4991 7204 3515 8010 6689 6264 542 4982 
176 1678 9627 4082 5154 4779 387 1012 1529 
7683 8087 1613 5172 5971 3895 7021 3941 7807 
1360 1370 410 971 2966 3782 7188 816 6447 
1501 6981 4347 9782 1566 2207 283 8795 7065 
6494 721 5498 8021 6289 3199 583 9332 4051 
8621 9693 5333 2141 9488 240 6501 9629 3865 
1876 7558 9499 4764 3896 9551 9572 9906 9062 
2309 3437 6540 1852 8577 175 6560 3300 2623 
1468 6038 9426 6437 2101 3629 8939 321 2143 
8829 7822 8194 2574 6416 778 3704 7335 2898 
7694 7586 7601 1969 1971 6582 79 9348 9765 
7153 8200 439 2482 4786 5022 3113 1776 979 
4652 1954 1820 345 6681 9830 6047 9671 6097 
2086 9544 8099 2233 9028 5487 1483 9828 9859 
1415 9171 9275 565 4475 3582 836 3914 4455 
4503 6822 9997 287 9941 5550 2592 9034 2959 
2013 5513 3481 9226 8095 4615 7704 74 8922 
849 9245 6203 7156 8711 9384 1701 6257 1882 
7825 3492 2112 1472 8590 4524 224 2717 3870 
2565 8335 1179 5795 9485 8786 7272 7740 3435 
4596 1126 2719 6355 697 4228 9400 3766 7111 
8913 7710 9502 9602 1485 1306 4450 6731 2399 
4625 9213 6079 193 9619 3853 2221 1457 8167 
3904 8243 9838 9815 7790 4967 4595 2762 6719 
1339 4078 424 6679 9455 3292 1387 1391 4286 
9458 2389 2864 1019 841 1478 3633 1369 9662 
3213 822 7190 3948 4231 1506 2048 4802 905 
6394 7035 4052 1113 8310 1729 4945 7734 3540 
8029 6691 1663 2359 6145 7830 7309 7266 7032 
4207 4396 951 6993 8431 5352 4763 9242 5276 
4781 3939 8410 2720 2380 6460 8821 6161 1245 
9623 2917 341 3462 5861 7268 2216 2170 4943 
9586 1086 1829 9923 3376 4852 8846 4788 7082 
9523 8451 7310 3795 2237 4249 2934 4981 907 
9621 4420 5819 3439 2136 9094 5168 4033 6505 
2515 6280 1030 1944 6517 7029 5418 2189 7093 
1569 3613 9330 1118 2388 1531 6593 8006 6206 
6837 9984 1266 6230 3394 9726 8612 7832 2733 
2982 504 8540 1322 139 9903 5791 316 3433 
7376 7973 7736 6023 1035 9378 8967 7743 4709 
7483 189 2681 9652 9198 3395 6240 2241 7394 
6046 3447 6035 3255 5385 8974 8598 889 8034 
6490 2281 3912 9910 2798 8845 8351 4946 8160 
9694 437 6096 7930 8631 7808 7897 6869 344 
5010 3413 9886 6227 690 4720 1573 8965 2075 
5943 6762 9497 3675 5346 4692 5769 2556 2854 
9656 997 8219 8026 831 5450 9376 598 4714 
9846 4399 4900 3274 8852 2892 403 9389 3123 
5873 5560 438 3039 1645 1404 9758 2869 8297 
4232 5673 6031 2192 5730 5004 6584 1008 4775 
9705 5965 9898 4015 6610 9736 9871 9170 8158 
4459 8347 1006 7306 5976 1791 8207 4772 9578 
2023 9282 7199 6645 7260 8665 6660 7632 356 