# vtk DataFile Version 4.2
Generated by LIGGGHTS
ASCII
DATASET POLYDATA
POINTS 10000 float
-0.0185295 0.000898875 -0.0366923 -0.0183362 0.00417067 -0.0367836 -0.0178934 0.00691022 -0.0369963 
-0.018016 0.00871601 -0.0369405 -0.0189009 0.011613 -0.0365053 -0.0184441 0.0133519 -0.0367308 
-0.0187715 0.0164953 -0.0365614 -0.0178711 0.0192062 -0.0370197 -0.0203372 0.0010985 -0.0357228 
-0.0191554 0.0025933 -0.0363689 -0.0201752 0.00396458 -0.0358091 -0.0193599 0.00583397 -0.0362566 
-0.0176433 0.00552075 -0.0358175 -0.0206351 0.00688422 -0.0355433 -0.0195432 0.0081783 -0.0361556 
-0.0210784 0.00918077 -0.0352941 -0.0209083 0.0112058 -0.0353851 -0.0197124 0.0100509 -0.0360692 
-0.0179175 0.0102187 -0.0359555 -0.0200849 0.0128012 -0.0358571 -0.021085 0.0141798 -0.0352787 
-0.0194309 0.0147792 -0.0362201 -0.0176969 0.0146695 -0.0357585 -0.0203792 0.0170774 -0.0356947 
-0.0203301 0.0191438 -0.035727 -0.0185708 0.0192017 -0.0353715 -0.0231081 0.00101678 -0.0339879 
-0.0213319 0.000893995 -0.0342461 -0.0195417 0.000893709 -0.0341149 -0.0215393 0.00250617 -0.0350073 
-0.0197733 0.00257722 -0.0346868 -0.0182623 0.00167013 -0.0350988 -0.023133 0.00286781 -0.0339803 
-0.0185032 0.0038156 -0.0349514 -0.0220815 0.00418207 -0.0346655 -0.019621 0.0051775 -0.0346057 
-0.0220938 0.00597528 -0.0346638 -0.0185329 0.00672555 -0.034834 -0.0220315 0.00777694 -0.0346945 
-0.0179817 0.00840527 -0.0351662 -0.0225671 0.00948456 -0.0343503 -0.0192661 0.00943405 -0.0344453 
-0.0191632 0.01119 -0.0347874 -0.0224355 0.0112704 -0.03444 -0.0208447 0.0124267 -0.0340662 
-0.0224906 0.0130614 -0.0344061 -0.0180441 0.0125757 -0.035158 -0.019151 0.0139064 -0.0346732 
-0.0217255 0.0158164 -0.0348948 -0.0199028 0.0155452 -0.0346678 -0.0231403 0.0164134 -0.033966 
-0.0195798 0.0172164 -0.0340937 -0.0178225 0.0162877 -0.034994 -0.0218197 0.01772 -0.0348291 
-0.0179593 0.0179754 -0.0342057 -0.022892 0.0192011 -0.0341434 -0.0211001 0.0192052 -0.0341116 
-0.0250366 0.000895547 -0.0326005 -0.0241151 0.00243123 -0.0325507 -0.0219588 0.00197197 -0.0329566 
-0.0184468 0.0024238 -0.0334835 -0.0207407 0.00324746 -0.0333322 -0.0248698 0.00406977 -0.0327214 
-0.0235108 0.00471146 -0.0337116 -0.0210413 0.00508388 -0.0335055 -0.0191198 0.00407891 -0.0332729 
-0.0182396 0.00630683 -0.0331013 -0.0236608 0.00718948 -0.033612 -0.0216105 0.00681232 -0.0331583 
-0.0199009 0.00668542 -0.0336769 -0.0224973 0.00838332 -0.0329418 -0.0205463 0.00835339 -0.033799 
-0.018675 0.00798885 -0.0335652 -0.0245332 0.00892356 -0.0329767 -0.0247107 0.0111932 -0.0328545 
-0.0232433 0.0101624 -0.0328333 -0.0209506 0.0102506 -0.0338572 -0.0182367 0.0102929 -0.0332451 
-0.0217337 0.0114845 -0.0328005 -0.0239505 0.0127484 -0.0334038 -0.0191228 0.0124836 -0.033555 
-0.0239286 0.0147936 -0.0334169 -0.0215776 0.0136695 -0.0329912 -0.020004 0.0145037 -0.0332061 
-0.0223045 0.0153008 -0.0328304 -0.0184475 0.0152925 -0.0336433 -0.0248814 0.0162504 -0.0327154 
-0.0210113 0.0164222 -0.0333654 -0.0241087 0.017766 -0.033291 -0.0223179 0.0178083 -0.033103 
-0.0205513 0.0180748 -0.0328374 -0.0249661 0.0192059 -0.0326525 -0.0193471 0.0190291 -0.0337657 
-0.0176499 0.0191999 -0.0329258 -0.0232404 0.000899737 -0.0321974 -0.0205503 0.000895398 -0.0326314 
-0.0187515 0.000898813 -0.0325046 -0.0262395 0.00264307 -0.0316432 -0.0227365 0.00243603 -0.0314049 
-0.0200599 0.00245103 -0.0318719 -0.0223225 0.00370053 -0.0326157 -0.0184166 0.0031812 -0.0318606 
-0.0203754 0.00424042 -0.0318804 -0.0187819 0.00510709 -0.0317929 -0.0266819 0.00573224 -0.0312299 
-0.0253232 0.00591927 -0.0323821 -0.0235247 0.00590413 -0.0323656 -0.0219172 0.00527785 -0.0318689 
-0.0203004 0.00602804 -0.0320597 -0.0261984 0.00740761 -0.0316695 -0.0244218 0.00742064 -0.0320043 
-0.0224135 0.00719351 -0.0316052 -0.0192192 0.00745948 -0.0319421 -0.0209049 0.00804952 -0.0320682 
-0.0257775 0.0100176 -0.0320165 -0.0234538 0.00887801 -0.0315086 -0.0215847 0.00976977 -0.0322428 
-0.0196078 0.00932078 -0.0326136 -0.0199491 0.0111318 -0.0326554 -0.0260033 0.0119031 -0.0318359 
-0.0241487 0.0123347 -0.0315985 -0.0186077 0.0120503 -0.0318939 -0.0252516 0.0135085 -0.0324288 
-0.0218839 0.0127165 -0.0315025 -0.020207 0.0128471 -0.0321771 -0.0231956 0.0137683 -0.0321328 
-0.0210325 0.0148098 -0.0316318 -0.0181591 0.0137638 -0.0327565 -0.0262742 0.0159979 -0.0316074 
-0.0244844 0.0149034 -0.0315937 -0.0195135 0.0160321 -0.0324053 -0.0232613 0.0165903 -0.0320193 
-0.0215041 0.0165645 -0.0316463 -0.0254315 0.0176953 -0.0318034 -0.0187464 0.0176463 -0.0325646 
-0.0263676 0.0192025 -0.0315309 -0.0231885 0.0192063 -0.0323772 -0.021487 0.0192011 -0.0317912 
-0.019392 0.0192102 -0.0319849 -0.0269816 0.00096074 -0.0310105 -0.0251273 0.000894647 -0.0308085 
-0.0234158 0.00116663 -0.0303376 -0.0216949 0.000982311 -0.031257 -0.0197566 0.000897769 -0.0310183 
-0.0177294 0.00112633 -0.0310478 -0.0276004 0.00263267 -0.0304491 -0.0260874 0.00400146 -0.0304795 
-0.0245929 0.00314107 -0.030977 -0.021241 0.00317473 -0.0307172 -0.019268 0.00396963 -0.030491 
-0.0277987 0.0047004 -0.0302722 -0.0246565 0.00493289 -0.0310438 -0.0230387 0.00416013 -0.0310222 
-0.0210287 0.00492543 -0.03035 -0.0229095 0.00587466 -0.0304993 -0.0193266 0.00630396 -0.0305738 
-0.0278252 0.00720604 -0.0302565 -0.0252043 0.00653712 -0.0304486 -0.0236803 0.00749197 -0.0303747 
-0.0211899 0.00671523 -0.0303822 -0.0271299 0.00874314 -0.0308742 -0.0251575 0.00869734 -0.0309774 
-0.0218132 0.00870006 -0.0306674 -0.0183108 0.00823362 -0.0306013 -0.0199206 0.00976956 -0.0309038 
-0.0182343 0.00977002 -0.0315278 -0.0277217 0.010361 -0.0303481 -0.0244862 0.0106895 -0.0309559 
-0.0228006 0.0111475 -0.0313914 -0.020978 0.011197 -0.0311839 -0.0177339 0.0112435 -0.0305537 
-0.0261329 0.0114421 -0.0301153 -0.0272821 0.012673 -0.0307458 -0.0255456 0.0132008 -0.0306862 
-0.0204394 0.0127901 -0.0303993 -0.0177178 0.0133699 -0.0310616 -0.0268855 0.0143894 -0.0310952 
-0.0238236 0.0136683 -0.0304527 -0.0192658 0.0144752 -0.0315414 -0.0276279 0.0158887 -0.0304269 
-0.022715 0.0151528 -0.0310938 -0.0194259 0.0160316 -0.030613 -0.0247619 0.0164819 -0.0306675 
-0.0176995 0.01624 -0.0310592 -0.0270166 0.0175075 -0.0309815 -0.0232095 0.0180661 -0.0309982 
-0.0201053 0.0175909 -0.0311723 -0.0277185 0.0192019 -0.0303524 -0.0245954 0.0192045 -0.0308969 
-0.0201219 0.0191863 -0.0303511 -0.0181058 0.0192057 -0.0307313 -0.0288989 0.000899197 -0.0292265 
-0.0270999 0.000906224 -0.0292252 -0.0253325 0.000897917 -0.0289213 -0.020916 0.000898738 -0.0296447 
-0.0187099 0.000916659 -0.0295553 -0.0292358 0.00263272 -0.0288888 -0.0257974 0.00231037 -0.0299376 
-0.0221693 0.00218141 -0.0295339 -0.0198277 0.00234614 -0.0299596 -0.0180584 0.00266533 -0.030179 
-0.0277008 0.00356869 -0.0288806 -0.023926 0.00332123 -0.0293232 -0.0291168 0.0049888 -0.0290106 
-0.0240609 0.00511106 -0.0293566 -0.0223476 0.00417713 -0.0293667 -0.0266958 0.00605598 -0.0294664 
-0.0177765 0.00573916 -0.0298634 -0.0290787 0.00678218 -0.0290504 -0.0273633 0.0085122 -0.0291069 
-0.0255311 0.00795371 -0.0293922 -0.023918 0.00868334 -0.0290634 -0.0222076 0.00767351 -0.0292475 
-0.0200669 0.00810735 -0.0302458 -0.0289788 0.00929955 -0.0291455 -0.0260599 0.0096785 -0.029774 
-0.0230319 0.00987475 -0.0300753 -0.0185317 0.00981824 -0.0297572 -0.0289041 0.011118 -0.029219 
-0.0245102 0.0103706 -0.0291856 -0.0212718 0.0101491 -0.0297533 -0.0245197 0.0120939 -0.0296833 
-0.0227595 0.0122964 -0.029994 -0.0212633 0.0118312 -0.0291184 -0.0196269 0.0112571 -0.0299443 
-0.0277256 0.0124653 -0.0290234 -0.0188038 0.0129843 -0.0296849 -0.0282059 0.0139682 -0.0298924 
-0.0264785 0.0140144 -0.0293916 -0.0218578 0.013845 -0.0301048 -0.0201968 0.0145279 -0.0300117 
-0.0183391 0.0146906 -0.0300162 -0.0249911 0.0148953 -0.0298681 -0.0231033 0.0148978 -0.0293654 
-0.0214029 0.0158555 -0.0299993 -0.0289345 0.0161894 -0.0291971 -0.026303 0.0167267 -0.0295345 
-0.023051 0.0165633 -0.0300353 -0.0279536 0.0176662 -0.0294574 -0.0259151 0.0184579 -0.0299372 
-0.0243099 0.0176675 -0.029396 -0.0216343 0.0176626 -0.0302279 -0.0199789 0.0173128 -0.0294026 
-0.0183091 0.0175718 -0.030017 -0.0290116 0.0191314 -0.029114 -0.0233402 0.0192031 -0.0296163 
-0.0215743 0.0192047 -0.0293035 -0.0302444 0.000922039 -0.0278344 -0.0235701 0.000891889 -0.0285738 
-0.0218365 0.000893899 -0.0281065 -0.0265213 0.00234351 -0.0283001 -0.0233507 0.00250835 -0.0278344 
-0.0203465 0.0019379 -0.0282916 -0.0250041 0.00320888 -0.0278856 -0.0216818 0.00311784 -0.0280803 
-0.0203738 0.0038353 -0.0290814 -0.0188027 0.00282228 -0.028553 -0.0302311 0.00419195 -0.0278472 
-0.0259778 0.0045609 -0.0287793 -0.018752 0.00458906 -0.0288854 -0.030202 0.00601245 -0.0278815 
-0.027591 0.00529839 -0.0281101 -0.0251293 0.00636922 -0.0286446 -0.0219429 0.00587974 -0.0289863 
-0.0201501 0.00581489 -0.0290571 -0.0174607 0.0055396 -0.0280646 -0.028248 0.00752858 -0.0276545 
-0.0264747 0.00745428 -0.0279548 -0.0233933 0.00670088 -0.0283113 -0.0187273 0.00723819 -0.0291661 
-0.0299451 0.00807945 -0.028163 -0.0204441 0.00771965 -0.0285323 -0.0187805 0.00880627 -0.0282926 
-0.0256472 0.00932295 -0.0280608 -0.0227767 0.00930524 -0.027828 -0.0209907 0.00936168 -0.0280358 
-0.0300635 0.0101816 -0.0280137 -0.0270822 0.010813 -0.0287337 -0.0252491 0.0111087 -0.0277286 
-0.0228353 0.0110338 -0.0287213 -0.0195696 0.0104168 -0.0283583 -0.0300366 0.0119791 -0.0280564 
-0.0198608 0.0122587 -0.02804 -0.0182205 0.0115031 -0.0288523 -0.027106 0.0135887 -0.0277681 
-0.0259687 0.0124644 -0.0286489 -0.0243994 0.0136202 -0.0287519 -0.0226414 0.0133353 -0.0285323 
-0.0208709 0.013623 -0.0286192 -0.0294595 0.0143478 -0.0286597 -0.0256441 0.0146742 -0.027948 
-0.0192924 0.0144656 -0.0284297 -0.0302737 0.0159467 -0.0278024 -0.0276673 0.0150859 -0.02858 
-0.0219508 0.0149766 -0.027991 -0.0204522 0.0158433 -0.0284762 -0.0264932 0.0162525 -0.027817 
-0.0248753 0.0161611 -0.0286022 -0.0230447 0.0165208 -0.028237 -0.018741 0.0160839 -0.0289598 
-0.0297016 0.0176076 -0.0284057 -0.0274506 0.0177686 -0.0277331 -0.0256202 0.0178225 -0.0278179 
[...]
POINT_DATA 10000
FIELD FieldData 7
id 1 10000 int
6130 3239 1340 1679 4318 943 1233 3816 1765 
4373 2955 1619 3396 861 432 2873 1071 354 
4501 2421 2619 4803 447 1847 803 3638 4147 
2428 4260 2011 4174 6715 5956 3837 3860 9374 
2167 2807 2200 4349 2901 2582 2811 449 4577 
9940 4341 2451 1407 1363 4150 3130 1337 3587 
1453 1190 242 3506 3965 2632 2331 4870 2933 
5433 1244 4377 2462 3047 3822 3453 2703 450 
2667 4086 215 3981 1625 1771 4193 1958 4391 
9624 929 752 3902 8321 3099 1383 1703 2884 
998 4462 8882 8961 4579 7604 3801 2329 3606 
514 4721 4724 1414 4925 3955 937 2755 4040 
4155 5090 1706 773 5431 2883 331 1561 4773 
4205 763 6152 853 9456 6894 4801 524 4874 
334 884 6421 264 2017 6404 4346 533 4287 
4225 7503 2610 9227 1921 791 2568 675 452 
6942 9592 4649 9300 2908 4820 322 4686 4108 
3952 4173 4212 3471 7889 8658 4473 1909 698 
2071 7347 5938 5582 9769 421 2558 4688 4644 
1183 4182 4657 645 8705 9963 789 7992 4584 
4379 3261 273 3342 1795 8580 906 7225 6978 
7400 1237 1392 3790 7778 8501 1963 1434 2937 
292 5436 9045 3957 1970 1347 4630 8210 1059 
3142 4829 3936 9413 947 779 6080 1624 3500 
2162 6111 1821 3243 1065 268 4460 1912 1739 
1079 8542 4307 1390 1462 1523 1358 1300 6887 
3803 311 1081 5752 7738 3301 2697 2723 9418 
5944 5380 9117 5660 4682 1201 3106 974 3482 
1750 1639 7453 5039 7422 5 3399 7916 7076 
1209 9268 7245 7582 4776 4812 6458 114 5009 
1038 9396 1529 1603 2730 5820 4669 4410 401 
3443 3869 8586 312 7823 2458 3388 1 2145 
3576 411 2803 2836 3976 1043 5222 1518 2804 
4687 3438 1514 3708 3470 8930 2379 8746 54 
1848 6223 5867 5478 6640 8038 9369 2326 8008 
7506 5751 3307 4490 8654 4886 1401 8767 5531 
4244 1767 4454 9784 8791 1623 1130 1551 9744 
6770 5062 4332 8124 1648 63 226 302 7209 
6269 772 8575 2479 2312 6881 2238 1652 5484 
2308 3244 2292 352 2637 4252 8418 9811 737 
9349 5515 18 8334 6375 9250 3497 4520 4931 
4711 1120 3426 347 3656 5079 4605 9715 8826 
2117 5518 4486 4680 6354 5135 8937 1211 9438 
2471 5687 7567 8611 7256 55 1382 1989 5985 
4149 990 7918 8760 8396 9530 4375 2087 9429 
7679 8652 3572 4585 3273 1649 7368 4651 4560 
1055 4597 42 777 2842 1489 7442 7725 3670 
6902 479 7019 3980 945 2631 4069 2789 8904 
3193 194 4494 6254 1539 4642 1526 5410 4949 
687 3327 5701 3815 8600 3212 6232 8425 986 
3871 1096 3027 8585 6192 5700 5403 6658 1402 
9424 8267 506 1553 6996 3806 8148 3614 3779 
2007 6294 2445 2921 4918 5657 8820 3740 7749 
3499 7329 6909 2618 9482 2307 3494 6940 916 
5040 223 8549 8831 7775 585 6074 7066 9357 
1753 1590 3498 7754 4500 7981 2702 6550 1274 
332 4636 4689 1305 7674 3293 8695 8859 7 
9360 3461 3153 1078 4842 4284 1973 9081 1993 
7333 6311 6326 9308 9153 6008 2086 8814 1677 
8436 2851 5641 6006 4217 7350 7196 2628 6535 
9033 9269 766 209 804 7299 8911 3596 6653 
1236 5459 7036 5373 5059 3910 7121 4541 6341 
3711 154 9284 7410 762 6215 47 3410 4766 
9526 3970 5138 1800 4363 9953 2150 9996 9717 
9053 4037 4511 86 1324 4510 3990 6521 245 
6795 8220 3128 7080 5224 3430 3419 6081 2868 
8325 8618 9354 1173 1576 7744 9994 1111 1651 
2725 6848 806 949 1440 1202 9327 2360 1779 
708 1412 7301 4658 5733 6029 5612 7001 8111 
3468 9745 1640 9168 5005 9670 7184 3857 4025 
13 7489 3647 4235 141 5669 3075 3024 2047 
9230 1528 4138 745 5342 4083 416 5959 9351 
6327 2397 4282 5962 1223 3786 3390 3328 9999 
3668 9860 2012 5202 9417 4857 6302 1459 8734 
8496 3018 5292 9175 2919 7303 9926 5587 3683 
2260 8702 6407 3847 1098 419 7327 734 1774 
1903 8440 4121 6713 9613 4909 9190 1859 2915 
4648 8173 7247 1942 420 3249 2888 1028 1642 
2204 3551 6824 6125 7509 8554 8117 1564 3408 
7565 8024 9428 2849 4745 6772 9331 4267 9695 
2780 9120 6632 7418 5761 8313 3050 8113 4881 
8264 8682 404 4722 9849 5694 3695 246 2078 
3689 570 3423 5095 7768 6186 6308 5078 2687 
2684 9735 7313 6971 7353 2006 1064 7537 5330 
1421 2524 1325 5220 3389 3284 3265 8893 5676 
9635 9223 2794 5082 2301 2163 2187 3245 7863 
5609 5798 4760 3645 8900 6343 9950 7966 1751 
1516 7662 8502 7296 6892 5887 8318 7670 9394 
4321 4469 5345 839 9513 4660 3242 3622 298 
1600 3725 6188 4808 143 509 9684 5489 6153 
8276 2230 4089 5961 8943 9159 5856 2411 8191 
3317 4279 2974 1738 730 5918 3690 4306 5901 
5832 9868 160 2734 9139 3063 6208 7517 7559 
443 4747 4234 5771 4361 7185 370 5973 6609 
4277 6488 3489 174 5375 2967 6180 9918 2659 
9 8175 5738 5305 161 811 5554 4094 2448 
1169 2707 4201 1265 6841 7859 6229 5974 3697 
1486 8751 6774 4335 6528 4157 9201 7321 8546 
8569 4441 2148 2185 2929 4243 4865 3216 5207 
6331 9068 4861 4120 3560 26 5562 8356 5853 
7497 3950 6089 5584 9706 7841 2750 3194 8479 
5093 9503 8944 2074 4406 3889 2250 6487 275 
6598 2255 5338 6805 4429 6393 3116 4537 1827 
9344 5898 2168 4443 7826 8638 8861 8460 9260 
6952 4982 2121 3986 1145 4831 459 9063 3220 
2945 3538 7384 5092 5490 575 8752 6904 8077 
1511 9823 8563 3703 3429 3772 3989 3318 2060 
4635 5170 6015 9050 5239 6832 4618 3252 7851 
5041 4479 7311 4933 96 3585 130 1664 6855 
8641 97 8956 1289 7004 4325 7685 1579 1460 
6194 9609 6935 6052 3577 930 6687 977 6336 
8413 859 2275 8790 5803 5860 9009 4986 866 
3671 3344 9361 9412 5014 2540 3501 3246 6090 
7200 8645 281 8312 1301 4063 8194 1806 6149 
7197 9872 5568 9845 1481 6084 188 4985 3472 
7532 7000 1741 7758 2593 729 7739 9669 64 
41 9928 6285 4554 4996 5542 5487 2089 348 
7611 8736 6478 4075 2551 670 4184 9796 6914 
741 252 1980 5336 4638 1522 5256 4499 7751 
553 7258 885 5972 5150 8381 3315 725 3006 
4022 9292 1214 8885 9226 4074 7783 4558 9333 
2219 3312 1156 2903 5105 7060 5355 7696 7890 
8519 5727 7120 8528 9650 8538 8242 5448 9992 
7401 9801 3570 5026 8516 9004 230 3558 7289 
8793 5934 5805 2956 3522 4667 71 1841 817 
3526 1630 9019 681 2018 3035 1604 195 5674 
5648 2434 6469 5714 4913 9686 2562 5571 8894 
3372 8896 2427 5449 3859 4152 4226 4049 3582 
5594 8630 1513 2861 7936 648 7098 608 9030 
4562 2357 5191 431 2342 7864 7731 836 7213 
2033 4779 747 3020 2891 8951 6431 6599 5175 
969 2405 2708 4530 8378 1548 5910 3341 2140 
7953 6464 7002 5981 3977 9821 1614 4621 6948 
9535 427 4189 4269 8806 928 7198 2800 1021 
1321 4706 7106 2095 9962 5473 9434 3203 5106 
8346 6288 1502 3040 1336 2381 3953 577 4099 
3345 5651 6330 7671 8855 2572 6242 8822 1766 
4304 5343 6810 8976 3973 3177 9295 2068 3401 
2675 5632 1178 39 3163 3107 7467 4389 6933 
2748 6555 5172 3603 5874 486 4456 3391 1150 
4281 6160 4005 1188 326 2218 1814 7878 1752 
7797 764 1675 2393 7480 8280 9303 271 1794 
3288 1362 3840 5876 7039 6494 2110 6199 113 
4180 4911 474 6489 596 3877 6527 2673 6103 
1228 6851 9101 3217 760 3223 5780 4322 3304 
1024 3958 2138 6673 7558 2623 5113 8606 3659 
2422 1929 3147 8918 8753 3898 8991 31 2715 
2280 593 8604 5595 4732 2015 8509 4606 502 
5746 4894 7745 9452 8803 2971 5881 7711 8984 
1398 5508 386 2461 554 1318 4684 5154 8050 
3971 5148 5799 3649 5992 8994 5902 5806 2446 
2291 1813 7192 8572 4726 2463 4762 1227 4218 
4126 3079 527 8683 6981 2993 8388 4458 3051 
5251 8157 5003 59 4467 720 2813 3375 4813 
5841 871 8835 7630 8039 8540 1663 2247 9533 
1267 1997 5001 7521 7065 5101 2378 1843 579 
7759 710 6154 2662 9499 5557 1560 1299 4369 
894 5446 8978 2402 6773 5514 266 610 4673 
5744 1540 3131 1395 178 3172 4718 7402 6733 
8716 35 5958 1685 4571 5349 8971 5287 5842 
1423 4617 2847 32 2205 5366 5677 2027 5846 
2801 6228 1715 4418 963 2439 605 3113 1960 
9471 7227 8727 3256 7887 1074 751 6314 5340 
1432 1455 475 1354 8170 1217 2630 1106 7695 
7067 6366 228 4653 6019 1557 7652 4619 4823 
5698 6957 4516 6590 1094 8923 3855 1250 8171 
9411 8085 5778 8613 5919 1296 8383 8131 9589 
1192 455 8370 7931 7866 5759 9473 9754 6277 
6787 3710 4060 4843 4508 3549 3492 4960 2229 
4372 6306 4457 7705 4171 3263 304 394 5930 
4386 4956 2689 2887 4852 3300 8300 8088 478 
6600 5606 6991 2232 9224 5269 6243 1542 3214 
642 4832 4677 4792 4295 4863 3956 2617 6561 
6712 6262 1924 7833 413 8763 4540 1177 3475 
4799 1645 7666 9961 1364 3126 1243 2505 624 
7274 5650 4135 9105 4292 4368 8025 5971 6818 
3281 3632 6498 8134 4749 1999 5683 365 2182 
4705 1212 3394 2388 7253 9128 9130 499 1568 
6822 8182 2460 2927 9478 357 1272 1704 3525 
1879 3868 9323 6073 4708 3751 3228 5770 2481 
5214 9330 6916 4077 6575 4806 1520 1069 5607 
7991 2580 4129 1922 3983 697 8487 1525 1327 
338 9642 4270 4798 8721 9496 4785 4471 3555 
6382 8975 3201 1374 6041 1632 2262 6399 4609 
8357 5033 2741 9865 4056 3103 8533 6227 2941 
116 3110 8868 8293 8838 2109 2127 1822 7435 
1680 3225 848 7159 306 1207 176 6927 4296 
1419 2785 4506 2548 1881 2698 4136 669 2530 
2413 2389 7190 5949 631 532 3003 3932 3271 
3568 555 896 3699 494 7659 476 1293 5166 
5494 556 601 3436 60 8241 6988 905 7056 
2705 7246 5245 4092 1322 4650 2212 8777 2443 
3984 566 2565 6145 8733 2992 7645 234 1339 
1890 5977 8335 5997 583 4735 4302 3280 3900 
4214 460 6094 6705 6416 6178 4953 7062 1259 
9240 5153 390 5392 2531 1926 9501 4004 2526 
3290 3005 2795 2351 4256 9129 6384 742 693 
8629 2978 4084 5989 2666 5777 454 1898 2059 
2133 1101 9293 6966 3119 8045 9777 9079 1070 
6679 2302 925 9773 1415 7545 540 9680 3653 
542 7987 8878 3022 8513 3823 7244 3510 989 
4907 8696 7596 117 1838 7179 9810 6720 3641 
5365 6837 7113 1589 9014 1251 3379 7358 6300 
6135 5563 8816 6630 4034 1144 4702 151 9778 
7118 2838 3211 5589 1601 2359 1377 6560 6888 
9423 2749 4822 3285 6968 3218 522 646 7640 
3781 4288 2668 1876 2695 2385 4557 6225 4337 
466 1468 4847 9289 7624 8323 3296 4081 5816 
5855 1205 8109 1646 5132 3738 2349 9062 162 
8200 7623 7408 8238 1695 3959 2097 8097 3486 
8471 2542 6422 4795 3013 1087 4127 2740 6315 
4146 1613 1689 6582 7073 2273 91 7484 2318 
2674 1370 3152 9048 1344 8098 4729 3679 7732 
8223 7605 9504 759 7557 1728 7861 8950 9704 
1256 359 4076 4236 6547 934 3633 2751 6812 
5979 1137 4934 4969 3258 2225 4414 1323 1968 
6138 1353 6951 6984 8057 4036 371 1006 5513 
8095 17 9007 3937 3069 7825 7510 123 5182 
1142 9543 2514 3870 9208 8258 3539 220 4009 
8163 8530 7104 1492 9554 1935 381 5407 5178 
9924 2614 1710 8920 5321 327 9315 6274 461 
5686 4713 4095 3366 9982 2574 6782 7381 8874 
9794 1966 9949 2709 257 1607 2081 8492 4383 
4966 5133 3303 2835 5466 6531 5400 1971 4030 
105 1175 5739 8349 4561 3598 3509 2550 279 
244 6592 9440 829 2523 3975 8041 6032 445 
369 4634 594 8152 9507 933 2139 3127 4593 
2457 4817 2010 2778 8055 2476 9177 8145 8981 
6120 6726 1803 4409 1996 9833 5549 6691 283 
7678 1073 3157 8365 9630 2845 8863 5970 6257 
8427 2590 9017 2332 187 4370 2051 3478 6303 
8710 5583 3437 5396 9242 5264 3232 3789 978 
7689 1990 1255 9126 7780 3170 8345 5907 3363 
3916 4514 2221 7177 6540 9974 5160 9594 8880 
5951 7202 3012 9884 4400 7831 2170 8520 880 
9840 4151 6512 6425 1981 6534 164 778 913 
4596 6405 5546 815 3982 4008 8322 3760 2763 
7204 5236 6514 6276 4816 4871 4656 4851 6860 
5801 3729 2770 1865 1394 7094 8449 7020 95 
4853 3550 2592 1140 184 2691 6144 3930 4053 
5750 8253 3082 2670 7163 7787 717 5075 2696 
1275 5550 3749 134 1953 9783 7365 4164 1277 
1647 5570 5879 6370 5242 8190 9936 1016 4716 
8601 1532 7237 7649 1546 3417 2281 955 4423 
6124 5757 1687 4844 691 52 6176 5432 3084 
1221 2380 1466 7528 7105 7031 5504 9746 8759 
1727 5223 5482 1117 1196 4021 8260 2922 4364 
2178 7254 643 8742 9651 2322 1776 8340 9214 
9404 5927 235 9648 9400 291 7806 6374 4569 
8070 5419 349 137 7693 8290 8485 3452 4515 
7637 8529 7096 36 5280 3248 5146 3533 2819 
7790 2450 5246 9450 100 3895 1360 2123 6379 
8464 9387 239 2747 7634 5057 309 6567 4422 
4712 487 200 1707 8438 3010 4186 4647 6447 
1015 6628 1242 7526 485 8901 1490 4482 1206 
6993 7588 6701 9449 769 7024 9353 8431 139 
8512 9086 7618 7452 7374 4016 2677 4114 654 
6058 9797 1809 8406 7980 7845 6605 7038 9432 
5421 665 5706 5984 6095 236 3660 7267 3032 
7599 87 2113 1034 7750 7601 5830 2960 8250 
7904 4696 3792 1314 7441 2825 2467 5541 5192 
2699 3060 5658 7248 6323 4224 6468 8895 1933 
835 6533 16 8883 959 2124 3904 6641 7419 
5986 2948 6907 3929 5661 732 9149 4880 3393 
7385 3365 8382 6965 34 4991 5307 3885 3677 
5891 2533 5358 3669 4229 2864 1569 8056 6868 
3514 8798 3654 5809 7230 7181 7434 765 8230 
7692 1580 4965 1294 5866 7812 5296 4975 2576 
7547 8628 4624 9047 2222 1472 7828 7715 2111 
534 7554 7077 248 8795 7326 7552 8112 8409 
9275 3629 8317 483 6355 8414 8570 3853 1430 
2399 8183 8332 2752 3905 1307 1154 9141 4262 
3915 8821 5665 5480 8336 2686 4305 5671 6038 
655 2423 1161 5909 1442 1107 1602 5389 7135 
9485 8561 3347 2334 1969 4072 8151 8167 2355 
1918 4208 4652 4445 2096 5453 652 1376 8627 
4989 8469 8578 2203 9176 2600 5216 5097 5470 
9032 3532 9803 74 4 8343 8216 168 2963 
7107 9877 1139 3133 7262 7762 3055 650 592 
2661 5575 4995 8888 5572 7128 9162 1945 1113 
3702 8123 8552 5099 2641 3863 9451 3173 7273 
6486 6107 3442 7375 863 2541 1985 7716 9114 
7879 5912 3865 7325 2285 2020 2100 2682 3705 
7973 4764 6190 6166 284 1931 4972 5454 7660 
7970 6441 8936 4497 8567 7990 7026 1857 3070 
7907 7277 7856 7556 8251 1635 2366 6012 9239 
6576 7886 3435 1306 8395 6268 4897 1892 7852 
4771 3448 2827 4242 4826 8605 3913 2509 2899 
5672 9278 6871 6995 5479 6113 6272 3592 6317 
106 6551 8754 8338 562 2996 3294 1944 1478 
2902 1019 7647 4845 3530 4819 8186 9979 6657 
1122 6539 8229 1932 5233 4315 3948 3580 4455 
5142 5784 3017 5904 1103 8164 684 7813 7832 
7157 1456 6654 9131 5435 1934 1986 6238 1815 
1282 3250 4351 8144 2209 5602 7222 5352 1837 
9031 9251 3933 5857 4464 5511 9319 9136 9536 
8291 4973 5381 6735 8012 2635 5871 3135 9382 
922 4194 2116 845 3042 6202 5402 7479 2098 
1505 2337 6815 1938 7923 2605 5668 3516 3756 
4891 2601 2487 3002 6219 6056 7285 3878 5112 
9900 6532 6677 6471 7544 8245 3205 4203 8766 
4833 4873 6391 9483 1312 3189 588 5231 7927 
4057 5341 8663 5703 4889 910 3839 2503 7960 
7752 5622 869 6250 1940 8768 7847 5501 5685 
5917 9841 659 8989 4237 748 7799 7377 5895 
3289 867 7165 7658 3935 7208 7977 7261 5766 
1366 6932 4836 4133 4367 6245 2013 5885 5498 
5424 7941 6634 9971 3810 951 5322 1701 6203 
9658 2853 3433 5822 5920 2616 3563 5968 7207 
8181 467 3767 4528 3802 3838 2720 6889 8719 
7654 3602 491 4929 2594 3132 7710 1869 4664 
2928 2044 4623 9756 4919 5147 6260 1759 6197 
7850 7199 4625 3519 970 8916 3179 4219 1748 
1061 9359 722 5614 3639 316 157 5168 7475 
5416 5443 5458 4767 2758 1983 2556 8617 5693 
1231 4436 7837 1311 7411 2009 2721 3658 4112 
4348 3552 3914 4900 2958 9011 7507 2772 6009 
9883 3817 5136 6173 1658 3800 2537 7071 9709 
5361 7572 6122 8310 7035 7699 4892 5840 3754 
3178 1102 9622 2761 8405 9135 6835 5506 8684 
9466 7328 4553 4396 6791 9403 5559 2656 6585 
4481 3553 849 6732 4988 1559 7719 4046 2459 
8897 8772 1882 451 2642 8234 1697 5284 7125 
1948 4709 3462 5779 2152 1571 4213 2216 1030 
1365 995 9203 2484 9215 2193 987 513 5543 
7571 8281 7838 7997 6079 3944 9469 9083 5503 
269 3535 3335 7756 1793 2998 424 4859 380 
7668 6785 9298 216 4251 1678 5426 1180 5720 
3422 1982 3573 886 5815 1994 3306 5328 4645 
2444 1959 827 4725 6069 1531 414 2035 8360 
4565 6155 8353 761 6097 1734 1162 6963 5908 
8082 8761 1204 4167 5156 388 7456 7210 7398 
7938 4774 3481 6216 8029 1426 3667 7072 2186 
5872 2338 7839 211 490 609 8027 9042 8899 
7717 1361 6419 5617 6169 4340 4524 7807 9864 
3151 2310 2961 2164 3134 4922 9646 4564 3766 
2257 2077 2517 7675 439 6305 9502 2832 2083 
5849 625 6869 341 6332 1195 237 1825 5370 
699 3600 5960 4903 9455 6316 2889 771 3479 
3761 5931 3684 1427 7012 5080 952 7620 3692 
688 8833 1269 2136 2640 7068 1616 457 9619 
3612 2824 701 7994 1420 4029 101 2371 3825 
2270 1134 9510 6309 2802 6652 2335 387 1014 
6781 4343 5555 9363 9581 1671 5560 9034 4588 
6650 4317 7609 5794 8873 4805 241 3994 2157 
6702 2596 3765 1181 8490 9916 6747 3891 5539 
9006 9397 5011 300 484 9321 7337 4431 7389 
668 9488 4273 2426 6175 4228 1049 798 2377 
2812 9458 8787 2220 7045 4176 1816 9164 4474 
4250 2099 3892 4376 8939 3444 8845 3918 606 
1009 4613 7082 4748 1497 3235 673 5608 9555 
4033 7206 2452 6553 4590 1954 5943 690 1593 
8521 4742 1787 9790 7446 5858 3609 1537 4113 
423 3919 8587 2931 9420 4740 5334 2473 2206 
8735 5257 3723 1257 4855 3370 3511 1501 7188 
4231 3015 6778 6970 1558 2897 8622 1334 108 
438 8852 5889 3620 8619 5051 2559 904 7638 
1988 1555 5633 4011 8397 321 6980 3508 1373 
6362 5129 1509 726 920 9902 9675 2719 1762 
5707 4602 1333 3728 3680 927 6876 2911 1124 
2323 3939 4643 7332 6775 7876 193 4856 2678 
7431 623 6757 9732 1708 6816 1457 3420 961 
9373 1562 661 437 2735 704 714 7883 1153 
4825 5083 3686 6096 4778 3655 4824 6253 6919 
4578 2762 4595 3188 2826 2188 4088 820 9728 
4286 1702 2529 1878 6344 635 2233 1716 4449 
3146 2266 9688 2710 6796 2288 5725 6587 9022 
1391 4503 8725 2866 7642 1572 3517 4111 1012 
7676 4380 1100 5310 2132 1369 1974 3574 2328 
9213 1976 6833 1404 4015 2485 685 2942 3233 
838 9297 2604 1512 8869 1335 9772 8871 4272 
9000 5821 4912 4600 9719 6529 261 9712 7720 
7740 3062 1252 2938 6239 180 1681 2156 477 
6472 3503 4691 1474 7214 1076 1605 9335 2798 
9170 21 19 22 4199 1104 1249 7553 136 
5662 662 2436 1485 2202 3441 671 2058 597 
79 3554 1866 1777 85 3074 4087 2088 2980 
6829 3543 2383 382 2048 9002 2700 9757 9788 
712 4206 2799 6398 9028 846 360 997 4717 
639 4604 4216 9661 9663 4802 4692 2959 2940 
924 3219 8 2367 1292 8921 700 6273 441 
6438 5631 4714 9276 5749 9970 4700 1840 721 
2793 3309 7704 7423 9094 9209 8621 8297 6161 
9225 973 4810 8804 3224 6749 9980 1957 1164 
8005 9232 2066 7268 3997 2267 9875 595 4082 
7602 4068 1341 9827 1536 801 9263 6179 5413 
3704 351 330 1253 3354 5139 9765 1288 6231 
8974 3460 4887 6793 9584 4576 3292 2658 3912 
5115 7233 7815 979 6072 3978 4397 1017 377 
4622 8087 7522 1914 361 3421 2478 574 6723 
9859 9978 4064 7252 7885 4573 2449 7796 4118 
2510 2075 3613 3842 4744 1797 2966 4347 197 
6259 3782 822 9115 2251 2877 3149 1418 7372 
335 2521 250 529 6141 2875 7008 9285 1338 
7781 1709 4964 8866 946 8412 7158 7626 6142 
3313 8723 3329 6497 7661 7156 3007 9817 6460 
333 3755 818 2511 6240 6819 5309 3136 2008 
1769 5390 68 2624 4091 2577 8486 9326 9602 
9290 1091 2917 6680 1230 9178 238 1796 1037 
5428 9195 8252 3447 1519 5485 2489 9561 6792 
9685 561 3320 971 9005 2555 5597 1095 7182 
6627 7415 4210 8583 6039 8016 7784 290 1240 
5845 3507 9711 9548 677 841 3093 4357 4534 
907 4116 5769 5620 6206 1949 5767 1597 3941 
828 4628 2055 4143 6834 3185 3909 3091 3098 
3043 9774 2969 2575 9460 2538 8433 5229 4926 
2547 6731 4051 9692 3741 9444 3180 5333 1578 
4283 1732 3431 7324 4014 1852 7236 9511 3795 
7021 9895 7064 9621 9977 2340 7814 8277 1384 
2717 1844 8932 9008 6174 9578 4772 2358 3238 
2347 6078 7508 9750 3190 3894 5072 6479 6060 
7822 8773 8351 3727 2724 9179 9842 458 9743 
9703 417 9853 6985 7445 8536 9673 6256 1615 
2603 1387 5152 8125 9701 4866 4739 2370 301 
9825 6338 4439 3171 1919 320 1611 5351 9538 
5800 3675 4261 5018 1690 3681 9726 915 9997 
878 4073 4720 1266 2756 1506 9116 1573 6908 
9689 1067 2869 3262 9065 3100 8779 8122 9944 
647 9371 9345 3077 5103 7282 9705 6035 1758 
2567 9736 1984 2003 7063 2878 3735 5067 4763 
942 4951 5819 7493 823 2828 6505 5647 2171 
1595 6759 8128 604 4815 7146 6418 5861 9600 
9698 9426 7417 9148 62 8829 2934 6719 6280 
816 4955 5348 6517 11 1875 7709 8671 1543 
7894 3866 4420 6683 8947 3908 9855 8224 1955 
9171 1483 830 9645 3917 6047 9947 1820 24 
1263 4475 4433 3439 9023 2892 2433 3536 129 
8064 1484 3208 2622 6446 1258 7133 2309 1574 
877 2141 189 9248 4023 917 2706 4723 1158 
7309 6748 7698 9954 4221 3666 6319 1850 7655 
175 7169 7737 4940 9914 4276 4012 1187 4781 
1035 5243 9629 9816 7151 6430 4026 1550 9857 
517 9157 442 9522 2108 5297 7216 3305 8110 
344 3467 1700 3954 9110 77 8783 6660 2680 
9551 9627 8781 5450 508 8965 7694 8180 2237 
7394 9886 4783 303 8364 9348 9696 1241 345 
3011 8771 1473 5935 4052 1413 6088 206 9966 
3694 2387 4945 7119 5249 7335 1287 565 9405 
2701 8195 8598 2821 2112 473 7669 2910 4365 
2655 7746 7743 2987 4207 1764 2192 9898 7615 
8756 1279 3432 9789 8158 5116 9702 7186 1829 
5474 7386 8184 8718 6992 5695 2348 9638 9261 
1082 3016 5346 2363 1089 1179 6296 9415 9633 
9662 6852 1754 5423 8043 4786 6459 9838 7172 