# vtk DataFile Version 4.2
Generated by LIGGGHTS
ASCII
DATASET POLYDATA
POINTS 21992 float
-0.00798686 -0.0992003 -0.0485423 -0.00666508 -0.086508 -0.0483688 -0.00514965 -0.0754357 -0.0488711 
-0.0044842 -0.0543241 -0.0489461 -0.000316763 -0.0380518 -0.0490176 0.00185512 -0.0380202 -0.0491627 
-0.00754244 -0.0369717 -0.048603 0.00115203 -0.0212978 -0.0491333 -0.00311721 -0.0162846 -0.0490986 
-3.32852e-06 0.0494573 -0.0491455 0.00197183 0.0545225 -0.0491546 0.00202414 0.0527843 -0.0491395 
-0.00482796 0.0584689 -0.0489066 0.0033837 0.0584523 -0.0480931 -0.00609268 0.0668965 -0.048767 
-0.00196603 0.0811305 -0.0488647 0.00128158 0.09495 -0.0491633 -0.0166026 -0.098171 -0.0452152 
-0.00969416 -0.0977931 -0.047137 -0.00569736 -0.0981746 -0.0477839 -0.00177471 -0.0981826 -0.0481057 
0.00164871 -0.0968301 -0.0481524 0.00259104 -0.0991437 -0.0470991 0.00501876 -0.0981832 -0.0478708 
0.0114495 -0.0979557 -0.0467763 -0.0136807 -0.0951565 -0.0461508 -0.00724347 -0.0948855 -0.0476159 
-0.00363102 -0.0950246 -0.0480189 0.00543528 -0.0945644 -0.0478328 0.00906242 -0.095231 -0.0472648 
-0.01681 -0.0935869 -0.045161 -0.0104809 -0.0933666 -0.0469814 -0.000182238 -0.0936885 -0.0481227 
0.00339658 -0.0915511 -0.0480137 0.00796323 -0.0917722 -0.0474754 0.0116406 -0.0927046 -0.0467197 
-0.0125847 -0.0904534 -0.046504 -0.00570748 -0.0889185 -0.0477837 -0.00291756 -0.0912908 -0.0480965 
0.000255496 -0.090451 -0.0465205 0.0114678 -0.0890666 -0.0467823 -0.0125698 -0.0868187 -0.0465084 
-0.00907005 -0.0874715 -0.0472688 -0.0022004 -0.0877167 -0.048095 0.00246142 -0.0880352 -0.0480963 
0.00607907 -0.0886136 -0.0477779 -0.0161585 -0.0861453 -0.0453639 -0.00793327 -0.0840233 -0.0475192 
-0.00440621 -0.084825 -0.0479288 -0.0012499 -0.0840021 -0.0456048 0.00133808 -0.0839105 -0.0481514 
0.00488419 -0.0846798 -0.047881 0.0083683 -0.0856719 -0.0473889 -0.0173742 -0.0834789 -0.0460206 
-0.0148722 -0.0827572 -0.0457488 -0.0114369 -0.0833702 -0.0467719 -0.0129797 -0.0811617 -0.0474285 
-0.00316882 -0.0814045 -0.0480787 0.00377498 -0.0812147 -0.0479855 0.0109079 -0.081755 -0.0469296 
-0.00268884 -0.0798749 -0.0459983 0.000275102 -0.0802496 -0.0481311 0.012801 -0.0786881 -0.0463915 
-0.0144694 -0.0783796 -0.0458942 -0.0122041 -0.0772178 -0.045276 -0.0104089 -0.0780555 -0.04699 
-0.00791021 -0.0770161 -0.0458138 -0.00658077 -0.0783388 -0.0476858 -0.0031113 -0.0773062 -0.0480737 
0.000474254 -0.0765011 -0.0481357 0.00395582 -0.0775795 -0.0479587 0.00925985 -0.0781739 -0.0472298 
-0.014713 -0.0747397 -0.0458307 -0.0113476 -0.073754 -0.0467947 -0.00799182 -0.0749862 -0.0474992 
0.00307365 -0.0738857 -0.0480328 0.00767862 -0.0748998 -0.0475244 0.0116503 -0.0752405 -0.0467249 
-0.00634133 -0.0713795 -0.0457755 -0.00406532 -0.0731448 -0.047975 -0.00043992 -0.0729454 -0.0481302 
0.0122111 -0.0714801 -0.0465599 -0.0103813 -0.0701757 -0.0469903 -0.00725294 -0.0683816 -0.047614 
-0.0033966 -0.0682563 -0.0480527 8.42951e-05 -0.0693449 -0.0481381 0.00434515 -0.0705372 -0.0473718 
0.00795777 -0.0710692 -0.0474679 -0.0132932 -0.067878 -0.0462751 -0.0101421 -0.0662518 -0.0470492 
-0.000900519 -0.0669721 -0.0476373 0.00160948 -0.0660645 -0.0477976 0.00512643 -0.0669908 -0.047865 
0.0133273 -0.0674217 -0.0462432 -0.0133816 -0.0642437 -0.0462439 -0.00634017 -0.0648624 -0.0477142 
-0.00216517 -0.0647279 -0.0481038 0.00685092 -0.0637885 -0.0476682 0.0103597 -0.0645044 -0.0470159 
-0.0129983 -0.0606308 -0.0463629 -0.009417 -0.0626948 -0.0471974 -0.00805821 -0.0608126 -0.045999 
0.000850826 -0.0625275 -0.0481417 0.00414122 -0.0609941 -0.0479456 -0.0164434 -0.0602186 -0.0452723 
-0.00979584 -0.0590811 -0.0471131 -0.00628587 -0.0598151 -0.0477214 -0.00270126 -0.059313 -0.0480906 
0.00091064 -0.0588861 -0.0481471 0.00753845 -0.058854 -0.0475469 0.0132274 -0.0580603 -0.0462604 
-0.0164792 -0.0565863 -0.0452572 -0.0129201 -0.0567623 -0.0463879 -0.00959282 -0.055454 -0.0471586 
-0.00761512 -0.0568273 -0.0458068 -0.00602785 -0.056191 -0.0477616 -0.00232856 -0.0555414 -0.0480933 
0.00420325 -0.0573574 -0.0479461 0.0102719 -0.0561191 -0.0470515 -0.0159418 -0.0529966 -0.0454307 
-0.0124514 -0.0530514 -0.046549 -3.80918e-05 -0.0533531 -0.0466978 0.00139792 -0.0549878 -0.0481476 
0.00461512 -0.0533077 -0.0479043 -0.00909588 -0.0518585 -0.0472778 -0.0055164 -0.0522053 -0.0478067 
-0.00190372 -0.0519027 -0.0481013 0.00191034 -0.0506289 -0.048132 0.0103485 -0.0513527 -0.0470318 
-0.0153127 -0.049425 -0.0456358 -0.0118295 -0.0494701 -0.04668 -0.00846487 -0.0482823 -0.0473913 
-0.0045808 -0.0486942 -0.0479135 -0.000948755 -0.0483837 -0.0481211 -0.00254942 -0.0485474 -0.0460695 
0.0063038 -0.0482925 -0.0477612 -0.0193504 -0.0457851 -0.0451605 -0.0166957 -0.0460765 -0.0451793 
-0.0115627 -0.0458123 -0.0467477 -0.00305633 -0.0452864 -0.0480836 0.00305377 -0.0466893 -0.0480431 
0.0103071 -0.0460283 -0.0470337 -0.0143485 -0.0433009 -0.0459339 -0.00668803 -0.0451262 -0.0476765 
-0.00148916 -0.0435574 -0.0467916 0.000718806 -0.0439064 -0.0481391 0.00734921 -0.0439419 -0.0475771 
-0.0163539 -0.0402843 -0.0452989 -0.0128648 -0.0400112 -0.0464089 -0.0101764 -0.0424041 -0.047031 
-0.00626341 -0.0417616 -0.0463765 -0.00247874 -0.0414974 -0.0480911 0.00103664 -0.0402867 -0.0481416 
0.00411956 -0.0423109 -0.047953 0.00750462 -0.0402398 -0.04755 0.0105261 -0.0422554 -0.0469865 
-0.0166637 -0.0374778 -0.0462661 -0.0096165 -0.0383473 -0.0471568 -0.00488117 -0.0387678 -0.0478848 
0.00424495 -0.0385336 -0.0479415 0.0109144 -0.0386352 -0.0469206 -0.013974 -0.0365184 -0.0460592 
-0.0108335 -0.0348831 -0.0468939 0.00178376 -0.0355748 -0.0481412 0.00792847 -0.0366271 -0.0474837 
0.0111196 -0.0349876 -0.0468834 -0.0138438 -0.0327984 -0.0460933 -0.00728966 -0.0336878 -0.0476145 
-0.00370532 -0.0341447 -0.0480096 -0.000387898 -0.0326566 -0.0481211 0.00600608 -0.0332706 -0.0477921 
-0.0165341 -0.0303477 -0.0452398 -0.0100088 -0.0313377 -0.0470868 -0.00681321 -0.0296913 -0.047657 
-0.00327718 -0.0304429 -0.048056 0.00297782 -0.031276 -0.0480477 0.00930423 -0.0318529 -0.0472162 
-0.0135309 -0.0275835 -0.046193 -0.00983973 -0.0277021 -0.047104 9.18487e-05 -0.0290499 -0.0481328 
0.00340718 -0.0275486 -0.0480004 0.00639817 -0.0296068 -0.04775 0.00888869 -0.0269524 -0.0472931 
0.0120132 -0.0295008 -0.0466244 -0.0161804 -0.0249872 -0.0453495 -0.00495797 -0.0265701 -0.0478747 
-0.00142312 -0.0257413 -0.0481112 0.0127087 -0.0243801 -0.0464208 -0.0116144 -0.0245014 -0.0467358 
-0.0080835 -0.0240676 -0.0474804 -0.0047566 -0.0226531 -0.0478891 -0.00118349 -0.0219987 -0.0481073 
0.00189169 -0.0242433 -0.0481338 0.00638218 -0.0243337 -0.0477576 0.00960642 -0.0222394 -0.0471679 
-0.0140503 -0.0218129 -0.0460277 -0.00995212 -0.0208526 -0.0470872 0.00356972 -0.0210172 -0.0479868 
0.0069168 -0.0195658 -0.0476564 -0.0163917 -0.0178757 -0.0452998 -0.0129554 -0.018346 -0.0463835 
-0.00960086 -0.0171859 -0.0471569 -0.00658476 -0.01914 -0.0476881 -0.00298616 -0.0188198 -0.0480893 
0.000651846 -0.0188518 -0.0481312 0.00399567 -0.0173856 -0.0479547 0.0106505 -0.0186471 -0.0469737 
-0.0122398 -0.0146744 -0.0465955 -0.00913246 -0.0144325 -0.0473424 -0.00553795 -0.0153365 -0.0478041 
0.000666996 -0.0156663 -0.0463751 0.00760831 -0.0159895 -0.0475367 -0.0154938 -0.0137569 -0.0464913 
-0.00760156 -0.0123174 -0.0475751 -0.00244079 -0.0139183 -0.0458074 -0.00144355 -0.0131906 -0.0481084 
0.00218152 -0.012852 -0.0481119 0.00462838 -0.0141648 -0.0486777 0.00669417 -0.0122229 -0.0477093 
0.0106743 -0.0135302 -0.046965 -0.0110165 -0.0112578 -0.0468726 -0.00504409 -0.0096733 -0.0478597 
2.15727e-05 -0.00986416 -0.0481289 0.00216907 -0.0105791 -0.046804 0.00425572 -0.00947782 -0.0479404 
-0.01379 -0.00902167 -0.0461112 -0.00849819 -0.00862178 -0.0473964 -0.00472152 -0.00773689 -0.0461197 
-0.00272299 -0.00767139 -0.0457536 -0.00224971 -0.00670613 -0.0481112 0.00183357 -0.00667918 -0.0481385 
0.00745576 -0.0076989 -0.0475602 0.0118457 -0.00883265 -0.046674 -0.0153452 -0.00474082 -0.0456239 
-0.0117952 -0.00463813 -0.0466862 -0.00591874 -0.00607934 -0.0477576 -0.000189889 -0.00615179 -0.0464514 
0.00464289 -0.00652835 -0.048923 -0.0142271 -0.00183895 -0.0470412 -0.00835594 -0.00336917 -0.0474224 
-0.00348697 -0.00329479 -0.0480339 -0.000138847 -0.00205038 -0.0459251 0.000142351 -0.00341674 -0.0481352 
0.00377507 -0.00349617 -0.0479808 0.00750978 -0.00335137 -0.0475522 0.0123155 -0.002954 -0.0465348 
-0.0142377 0.00103941 -0.045969 -0.0104925 -0.000395562 -0.0468279 -0.00535312 -0.000191645 -0.0478322 
-0.00172842 1.88443e-05 -0.0481011 0.00190234 -0.000238391 -0.0481283 0.00552634 -0.000313331 -0.0478235 
0.0090138 0.000979915 -0.0472733 -0.0115999 0.00342608 -0.0467296 -0.00774464 0.00378027 -0.0475551 
-0.00413982 0.00323907 -0.0479579 0.00103561 0.00329036 -0.0481417 0.0061048 0.00299915 -0.0464552 
-0.01571 0.00436882 -0.0455179 -0.00143606 0.00595484 -0.0481092 0.00337242 0.0060708 -0.0480129 
0.0073127 0.00625017 -0.0475811 0.0104291 0.0043261 -0.0470087 -0.0134925 0.00716087 -0.046214 
-0.00993969 0.00664001 -0.0470922 -0.00706589 0.00892341 -0.0476485 -0.004205 0.00714569 -0.0460825 
0.000904027 0.0087389 -0.0481391 0.0102031 0.00842459 -0.0470512 -0.0157345 0.00993153 -0.0454882 
-0.0106563 0.0101994 -0.0469411 -0.00260176 0.00970642 -0.0480969 0.00327078 0.0115005 -0.0480198 
0.00690151 0.00987129 -0.0476719 -0.015515 0.013563 -0.0455603 -0.00667923 0.0125366 -0.0476836 
-3.4577e-05 0.0133958 -0.0481258 0.00536344 0.013094 -0.0466643 0.0078149 0.013386 -0.0474989 
0.0114684 0.0127692 -0.0467832 -0.0120976 0.0142053 -0.0466248 -0.00324419 0.0151085 -0.0480605 
0.0040056 0.015064 -0.0479496 0.00315995 0.0169345 -0.0462045 -0.0191947 0.0169535 -0.045054 
-0.0165466 0.0170607 -0.0452324 -0.0130914 0.0178352 -0.0463386 -0.00966704 0.0169123 -0.0471439 
-0.00602109 0.0174668 -0.0477467 -0.00255729 0.0186797 -0.0480943 0.00093216 0.0170021 -0.0481482 
0.000891675 0.0188573 -0.0463116 0.00410455 0.0188243 -0.047951 0.00722217 0.0169806 -0.0475721 
0.0103701 0.0190055 -0.047016 -0.0153537 0.0205987 -0.0456245 -0.0132202 0.0203602 -0.0473532 
[...]
POINT_DATA 21992
FIELD FieldData 6
id 1 21992 int
13420 12275 9134 20730 15853 10913 17099 21275 19464 
18628 16918 11513 12487 17910 21618 21608 17152 2182 
438 5385 2613 6597 14776 7301 4140 5313 607 
5301 1931 4673 2443 5814 6508 6027 5728 6110 
5590 733 982 7711 5456 4651 6308 6818 2830 
6656 2364 5777 559 7291 3000 5833 1232 12644 
1070 6158 17810 3754 7491 4159 21387 5715 6843 
7555 19306 4407 12820 4235 785 1841 6446 1648 
2767 145 958 3002 3961 1220 3401 3370 2795 
5819 7454 2614 262 320 3760 7563 5415 297 
11078 4098 6030 2000 2278 4043 7500 449 2489 
666 5589 17421 618 2289 119 7439 2810 6957 
6765 7645 4202 5151 3012 5202 10698 4335 1217 
5049 6570 3499 7488 18651 6286 7282 4758 6254 
5778 3632 4736 1924 5362 6251 7756 1677 18174 
319 19523 3637 5874 3809 688 7071 978 5692 
19637 4016 2271 6991 6626 2858 7121 5077 3991 
2119 602 4592 15323 2144 5730 1374 3890 6979 
6941 5524 6980 4702 229 4054 3243 635 4057 
2782 6937 1537 7287 7497 224 4142 1960 155 
2790 3949 5072 537 33 457 1831 2791 2813 
7591 1177 4252 3214 6596 5334 4716 6418 823 
1555 5403 698 4801 2871 5523 4692 5105 2143 
4749 13794 338 1504 716 21249 4310 21615 954 
1028 19358 1613 1549 7095 7629 2979 19408 4823 
2138 974 10583 21845 5006 2695 2508 6478 3592 
867 176 17001 10352 15376 2794 5719 9451 3364 
2108 5578 7547 3 5917 1625 73 776 3621 
6407 2698 3448 4346 7452 6336 6583 2766 4751 
5794 2459 1640 2213 6355 3861 4354 2876 3162 
5413 1546 5575 5713 3854 2384 1053 15804 3992 
7631 1725 1579 4593 21474 14788 4345 6908 3254 
994 1926 7125 20947 5776 1787 1375 2862 12694 
6947 478 18659 3865 2893 18834 397 4997 7626 
4457 6230 4084 4189 3799 14185 1866 2053 7113 
3756 3098 4546 1658 18961 794 4021 6960 2155 
21693 2148 4378 3997 6551 2023 2332 3506 215 
9365 19137 6188 1022 6959 3891 4672 1812 6993 
312 6668 6148 5168 2715 4793 685 4520 3674 
6006 1712 6996 761 699 1359 5678 5760 629 
3459 1936 7421 1973 758 20836 1476 3688 6717 
6322 2214 7266 3217 157 744 10852 873 2100 
987 6326 3133 4220 532 3957 1529 881 18066 
20237 4813 14637 3266 7311 5609 5747 4869 1321 
285 6343 14317 14942 4837 6532 451 2752 5781 
11769 2145 914 5457 4991 5315 7703 8558 1928 
2839 5336 11420 5433 7752 6691 6480 4336 7717 
7025 5469 6917 1384 3713 3725 19154 4484 5045 
6202 4341 6323 1470 6605 5010 200 4183 3748 
5536 140 998 1681 15469 4154 7101 5190 3880 
951 4931 5337 241 2837 7610 11446 4158 7105 
21196 4387 1198 5852 446 7192 1033 7029 517 
5312 5859 5264 1528 1952 6213 2956 2351 281 
2638 7601 7611 3039 5934 1357 2536 4661 8272 
7057 1779 4408 879 6319 5344 1308 7695 3406 
7172 6429 734 5883 4656 5950 6274 7427 6114 
2102 9095 3561 626 16449 7543 3797 7299 2230 
5621 5095 15488 6874 2386 1745 1151 6045 4911 
7039 5423 4110 18283 4595 5454 20943 6828 1506 
4691 12306 835 7609 10709 5766 515 6052 722 
6175 5056 4899 3275 7397 2811 5901 20594 834 
658 5224 6683 4575 4760 7038 1196 16810 6255 
1914 845 14650 21804 2028 5564 1258 3220 11760 
1352 2113 7566 7077 1073 1221 13632 6152 7653 
21757 13140 9443 2560 5063 2855 467 9490 15580 
1245 18609 8383 6168 2644 3240 6602 15772 4267 
6576 5015 520 12561 11490 6439 1335 3165 11596 
5181 1646 3805 2253 2628 1404 5702 5944 18482 
3987 2440 4188 3372 4468 10344 2699 6797 18265 
20486 378 4820 1069 18396 6922 3380 3229 4781 
4007 4403 2874 1993 6376 250 20073 1425 4382 
8795 5440 7622 6103 1798 21029 1190 6243 8920 
10341 20499 6312 2657 4076 7169 15353 20894 4588 
2854 6764 3103 524 693 3235 1610 6173 17170 
7003 5162 959 1332 6300 6560 4222 20169 18091 
1027 10142 3117 1696 6134 1408 259 4890 3784 
426 7415 15361 911 21311 5517 4091 3874 5280 
4368 5261 3068 10978 3204 19900 2946 3326 6695 
7369 3994 3303 5592 1828 2595 1392 19856 4771 
2008 4922 1853 2487 5889 3468 1168 15817 1524 
5446 4709 3251 1795 1080 4232 4761 2873 16034 
1594 970 18436 7554 43 3853 12068 6394 3488 
4727 295 4930 2190 4877 11779 7065 4081 2211 
7367 3268 6559 76 20417 848 9658 9938 16284 
2504 11256 510 2086 5096 1001 5462 1850 2192 
3901 288 4119 3171 9296 10335 4331 729 2637 
3816 20636 2011 5156 10670 2151 1776 4587 2198 
996 2320 480 6651 2809 3602 3178 3660 359 
1614 5317 4187 459 6838 15553 19808 11191 5110 
9606 1588 5018 2942 6790 7480 21278 827 5129 
4303 3852 19363 771 2316 4221 1040 1557 6423 
622 1626 6770 2027 6665 21698 6647 4292 781 
6837 6902 5744 6512 1418 383 4343 20651 815 
7436 3616 841 3010 956 862 2660 3548 6346 
6970 4047 3233 2083 6038 381 1383 4653 760 
2906 5863 1675 3999 5817 7463 7153 4648 1104 
6659 603 3154 3009 2485 1072 3288 6701 6046 
3916 10584 5701 6759 1824 1500 7389 1492 7580 
15999 1406 11457 9597 2264 3438 2792 3267 5067 
5909 12191 7536 5659 6720 5374 5502 4757 3613 
7521 29 2606 6026 335 2341 18140 1666 4856 
5962 6379 1576 9857 1165 2363 496 5785 10305 
5020 5584 4987 5213 9958 3998 17624 2840 3730 
5708 646 7150 2960 3909 2846 1996 14144 21313 
1954 1344 4792 5016 4981 2987 1799 8350 11699 
14258 19702 6185 5260 1149 271 5356 4344 2673 
10093 17334 757 11482 21822 1169 8533 280 4390 
5654 6827 2460 6493 13034 774 6361 1394 5695 
2300 2594 5499 2986 5526 1764 3836 5341 6835 
4003 19146 4551 19095 19619 9262 14634 4361 8131 
6607 1984 4647 14777 6669 6118 6010 6966 6232 
5622 1547 21164 3697 4114 21266 10782 7665 2735 
6862 7763 7280 14905 5963 20982 15384 1790 7565 
11212 14381 20617 2618 4092 21230 21710 6808 4502 
749 5935 105 3274 5033 11316 11774 19459 14740 
2262 16369 17544 6062 7657 3694 9557 18523 7471 
12657 13350 4618 4953 3248 11861 1094 2204 5768 
5574 2554 6642 1531 4809 3389 7079 372 1052 
2821 9588 2623 8505 3726 10914 1933 4604 7114 
5459 1533 6670 6264 7745 6977 7487 5372 5643 
16245 3554 3073 4821 6954 2097 813 4479 2014 
3661 1289 3473 8977 19623 5722 6149 4730 19896 
5133 4337 7213 5988 7602 1634 7528 2276 5455 
3618 5207 3928 86 2401 4308 5798 933 3027 
4433 2625 7772 2118 4452 142 4388 6931 5505 
1869 5229 6645 2325 5447 17911 4277 5309 3069 
6035 5035 3287 7785 5703 7569 6755 1411 3454 
6028 4848 4320 7461 6428 1016 792 2898 1185 
2805 6974 14684 1446 20129 3701 495 6265 1865 
4008 10121 21544 2654 1049 5411 7508 799 3740 
3139 3541 469 4892 6735 2860 4970 4559 1599 
3923 11564 7774 5087 1763 5694 3496 4494 2080 
7049 4810 2174 3032 4613 3655 17054 4900 4115 
1216 2224 1430 2590 1246 17015 2785 2441 235 
5047 4191 12012 1156 2473 4175 18346 4545 2889 
5959 5635 3411 12863 4726 6780 7592 4445 5216 
17026 1596 5699 2607 6870 4767 2645 12467 6492 
12620 10297 7720 3129 773 4676 2189 3524 3714 
18093 1872 4530 7943 20358 3375 15905 4239 42 
11538 7375 2481 7212 19418 4811 21103 17972 20517 
7005 13732 825 3099 466 5813 5896 2206 7175 
931 5030 11682 3705 1791 3630 3530 5268 11519 
475 11806 8149 14039 2466 6556 7482 6760 4171 
16210 9198 11366 691 14595 13302 10839 3323 11275 
4150 13087 3888 19027 6170 4241 424 9645 18335 
8957 6631 8620 15207 13519 5662 4249 17742 3232 
676 15064 859 15061 2035 413 15798 5240 4845 
7225 1509 16378 2762 11736 11826 1339 5541 134 
1930 3755 1702 6370 9282 2295 2969 14104 13292 
1807 7335 362 3907 107 4203 21754 7651 3801 
2065 10551 1565 12764 6015 3156 3174 2928 15966 
2259 7313 13728 6936 5424 17431 17903 4632 4609 
17734 6422 4955 18515 4738 1687 7570 746 20105 
6183 7229 21554 16174 16587 6390 7760 2690 4434 
18274 7743 1273 3019 4061 7238 3986 17448 4863 
7481 20927 633 14056 1250 7264 1592 3491 6895 
7748 20232 5616 19219 3439 8223 1191 1323 2909 
4193 7571 14192 15287 1450 419 3304 6876 10803 
1808 1468 3535 6154 5244 3179 2123 9239 10410 
20844 3497 2111 8931 10282 19016 7954 2865 4033 
11047 282 6341 20825 19368 8105 1443 747 5735 
4617 17887 13426 21338 10902 21649 9968 9901 15068 
16340 5060 5844 19374 2197 5898 2329 4963 12231 
5895 20320 15722 18367 10024 7418 8631 6903 6136 
1002 1835 17453 1044 17715 4824 20961 18559 14252 
1925 3534 11069 3715 2738 2380 31 1949 1966 
13717 15100 2567 17892 3383 17552 5128 5779 7289 
768 7593 382 2925 10955 20792 1227 4649 1552 
192 1415 448 269 6262 5672 2641 16847 3575 
1098 9787 18600 12872 4579 4229 1420 13655 15415 
1091 18127 3409 9347 14653 1728 10400 7447 840 
2611 593 13800 7024 17654 13380 5001 346 2468 
26 2169 5873 3427 6580 1679 4067 2449 194 
3876 16405 20095 2859 2191 470 6852 7765 7047 
6056 5976 13255 1632 1075 3988 1175 1992 255 
3546 4475 2515 4274 2340 4787 516 5509 342 
2532 6393 7036 7642 20265 2687 458 865 1510 
2741 2357 3937 9266 17197 594 5373 3056 1553 
2710 7489 4090 20311 2463 2922 3699 16248 6176 
3054 2921 1826 1176 11692 1539 13495 17404 21228 
2664 7755 1497 4086 2977 690 2374 4258 3611 
7636 871 1985 1879 3016 2622 4814 2692 4254 
10266 9219 7362 18662 7084 3362 7671 11454 5922 
118 4037 5890 1701 3487 339 7701 667 17128 
11943 115 3293 4639 7232 7594 344 7043 18395 
18421 7216 4322 12789 21287 19399 6928 4369 16102 
682 2066 18460 3620 2054 18919 7896 15744 5175 
20940 3789 15413 6649 6660 6593 4896 1147 18776 
16389 8000 14607 3234 100 9827 4052 1299 1998 
1121 18285 6844 16114 2419 4553 14481 4302 1484 
1019 2404 6946 21519 9130 2531 1296 4135 1371 
4695 741 4865 7616 2241 21940 16707 597 3915 
7325 17868 11712 1656 6047 2405 2477 1585 13826 
189 17339 3447 9300 6220 12159 7365 5187 2391 
4312 6313 19667 11013 14513 18929 12155 9252 13261 
19959 5790 4683 1676 9940 1330 5024 6126 3490 
6231 1880 5724 1989 7260 3036 5830 3800 2183 
14423 2843 5466 9770 6952 4731 4679 6520 6161 
18725 14673 10031 11547 6272 766 1252 6733 4269 
3325 3676 9836 1416 4512 1310 1193 6102 4670 
7270 11270 1494 8239 8477 16031 10192 3953 5439 
1863 4891 6447 19457 16804 16849 14232 2410 19311 
11798 20135 13279 3184 1369 3306 4937 7037 1455 
5632 7413 11038 15396 11493 16966 6156 1214 21855 
14037 18046 19887 4063 3286 20518 10576 16349 6452 
1899 294 2926 1893 7014 2669 4100 4376 2304 
20040 6085 14068 6181 7306 6907 20735 14828 7134 
913 17276 11824 4534 10460 6538 2556 355 1385 
3658 6743 6002 12414 11080 8787 16160 19317 6545 
1627 4256 3132 918 5528 3687 764 5467 3104 
4411 3589 2966 3735 4560 5091 7 6184 1431 
5326 6302 2411 15610 579 16536 6997 5146 3989 
6443 5799 10369 6445 1688 497 5414 512 6437 
3717 4111 787 4908 1772 6324 2483 5577 4745 
15070 5417 3142 3597 2233 4708 7277 6367 4027 
7384 11559 3297 6595 10535 1304 2566 2634 7200 
4264 16958 5472 12424 3638 653 6141 7600 6356 
606 7051 7668 5225 897 5249 3296 3373 1703 
5094 3344 20537 6498 5986 2240 880 2989 541 
1144 4542 129 484 2420 1759 6043 13401 6291 
6275 2997 6316 4212 4505 6734 6772 3085 5198 
19580 3122 7747 168 18895 6939 3366 6542 5206 
786 9052 3025 2881 5048 1695 1222 1560 2497 
5630 4291 14837 5437 5041 1743 17135 19127 2348 
7641 17268 2379 17528 13364 21831 17021 9705 10777 
3478 7538 6549 4393 4214 1890 4619 4847 21157 
4990 14547 4006 13373 21215 5019 16812 19036 9445 
11802 15206 707 5028 6194 4127 19103 2303 13370 
3066 10666 13021 4483 2117 513 7680 4295 2911 
5864 6561 847 2758 14472 18531 16876 18038 9171 
12488 18262 19331 14379 2769 6810 3369 21214 4019 
16862 9996 10766 21815 3349 7082 6758 21056 1784 
17177 4024 1667 6706 2163 7112 15146 5705 7018 
14133 20631 21320 12209 20416 16412 1704 5583 206 
7383 12747 4504 5729 5327 3959 9703 10563 21341 
6040 11438 5473 6305 5370 20319 7432 10705 21516 
3309 13123 20472 8718 11152 3272 3371 3221 5420 
6568 5376 2293 19192 20748 20429 20615 5881 11255 
15156 10409 9620 13393 15906 12483 17309 13841 3284 
8716 7736 7739 3354 6224 7393 19645 4568 18563 
2296 2479 13542 6633 17952 5232 1922 6421 5271 
6457 10843 15862 18024 167 9235 20066 20791 2376 
10010 138 4301 3216 5853 4103 1148 3678 19639 
439 15095 18132 12070 15278 10203 4541 179 14215 
2589 19895 8960 13594 10561 7437 3792 4079 3913 
16069 5919 3667 4925 13851 9155 9332 14059 10672 
6608 14606 15567 18587 7518 15808 6948 3089 1955 
1788 18233 20902 9310 21012 17507 14015 21431 3939 
18088 16644 8054 10610 21244 21049 15237 3665 4889 
5800 15694 2371 19134 2755 17461 1792 11344 6024 
9200 11686 12501 6745 19511 20767 8310 21797 11678 
4715 5178 1103 560 3126 3557 7725 9040 16135 
6411 20763 15760 13497 14156 5746 9012 8914 3532 
20937 17845 7316 16037 9051 775 3594 1412 11758 
20726 15813 1756 13683 17793 18417 10046 14440 2050 
13734 7744 6925 4112 5409 2935 608 20843 4724 
6420 17378 9749 17516 21130 10627 20744 20439 257 
15368 2161 2760 6001 2315 809 6069 5127 4942 
21794 3716 8121 10884 9064 18758 9126 11242 4852 
6731 11897 7494 15322 18579 180 3469 3141 15783 
16608 7865 14220 21139 3187 2458 6757 7307 3431 
6383 15152 8563 17897 17043 14160 14695 9835 225 
6189 5897 2397 171 3124 3770 8065 7069 3213 
3929 18069 7940 1515 4646 12636 15089 13553 3028 
1048 18357 10743 14138 8050 15471 3918 10293 3338 
7684 4886 2953 2569 1355 2361 4866 15333 12119 
4921 9122 15796 12667 19349 16341 21400 4362 9601 
72 10301 3773 3365 5275 7706 16000 3843 9394 
1963 18145 6267 21208 12986 8676 14859 3967 10235 
740 5603 4266 16778 8494 5782 505 20606 8778 
21958 548 15919 9093 5476 14478 7782 4122 5991 
7347 6054 21714 14014 12021 14580 9187 13983 9075 
7017 13150 9966 7929 18224 2742 20481 3582 17820 
7103 10052 2237 7751 919 2311 12462 15681 8678 
18187 18408 13725 9213 16611 11616 12407 12850 17834 
3838 7178 5148 6240 3869 95 2378 13148 15167 
12838 11982 21674 19369 13810 2773 10837 5369 655 
4055 6650 4555 10628 1424 9764 10480 8512 11040 
14436 8220 12635 8746 14241 7677 8799 3212 5298 
789 5071 6926 10268 551 4485 20128 10725 12539 
4213 7309 8240 3091 6164 2342 3125 19466 357 
3570 8217 13539 1162 4173 16509 18199 7009 14432 
10962 511 5948 7391 3786 9046 6678 14123 7199 
4018 19121 18217 4920 20766 12125 20530 11946 16754 
292 13838 187 2651 11754 432 20733 1481 4201 
1564 8649 1248 4822 4915 5387 8730 7446 21199 
2781 11832 10099 18526 15967 18487 1118 1123 6044 
5733 4328 6824 793 132 5363 19703 8311 14022 
2436 13298 445 18175 17942 14287 425 16108 921 
1559 8457 1864 16506 21546 10307 3793 20380 703 
11162 7709 2130 11506 6391 5173 1940 10496 3033 
16022 20813 10221 15621 18643 16310 572 11622 5867 
5203 17304 4458 7540 7428 5332 7737 13475 2250 
19945 5679 2343 15204 18901 9224 8907 18435 19943 
20546 19332 5711 1023 985 1157 6798 7775 8925 
16059 3562 15161 19100 364 3318 1187 349 4784 
6155 15038 6382 12206 16379 15459 3038 20785 19413 
17380 7809 10429 4576 5969 2530 3522 5272 111 
3425 12079 21653 18766 21246 5604 21471 20341 11348 
16030 4898 7676 5219 3579 6488 9504 11491 14578 
3764 16791 9215 13997 17486 20887 11757 16071 5869 
2469 16767 7435 7075 718 14678 20063 13763 15606 
8108 17857 3767 14655 19270 21247 20729 17995 2498 
15451 161 6872 1974 619 4532 1453 3623 2082 
16685 16230 16697 3563 9271 5549 2675 6094 9181 
1566 17231 3201 7258 9480 10058 2696 9546 8021 
18642 19078 2945 2164 4544 3889 18246 12907 19061 
11071 20510 21986 9034 21996 12630 13643 341 12416 
12136 7613 864 7621 4391 2825 21209 9950 4096 
3683 16183 21094 14321 15975 9098 2294 14395 7098 
3367 7354 5886 6381 7196 11609 20547 9039 12075 
8173 21864 19977 14750 217 21672 11524 13533 453 
983 6749 3247 12633 21488 16413 4678 14092 13241 
16606 3671 13167 3580 4176 20204 15629 6088 19020 
12631 5042 18491 17065 10591 16469 16301 12537 14179 
15800 18286 18965 7141 2576 17566 5104 4799 2302 
2346 11698 989 8955 4237 17703 7568 8804 16484 
15771 15594 12979 5034 14884 11117 18655 6510 16924 
4525 7987 6860 1138 13461 12480 15302 2806 12356 
20339 7546 2131 5039 14332 13715 5511 14725 16865 
5108 14867 14751 1606 5012 7663 1734 3150 2599 
6256 3195 13888 1786 15996 8633 18791 19724 20575 
16927 15124 4737 6410 3877 3944 9987 5893 20382 
15787 1241 1363 20679 20498 19082 12855 1755 7516 
3361 296 20907 10124 6020 15519 8014 9680 16994 
13757 21422 16663 9017 4763 10113 1297 10893 10763 
379 4255 1609 3155 1821 2447 2017 5998 2313 
2652 10693 1657 17373 16993 15844 17945 10634 14054 
1382 2127 18086 12906 3777 13421 11220 20258 15998 
13378 21569 8867 412 8765 5267 18200 6506 4165 
7438 5737 598 17614 17971 13468 20053 19340 19007 
20450 13915 19815 9286 21599 6875 5891 1209 2084 
2135 10497 3045 9260 10923 11111 14715 822 19233 
21401 1063 19367 15637 12853 6553 6332 7690 11674 
2816 9560 18218 17537 7985 9005 13159 15128 10075 
19261 1672 14455 17929 20067 1011 11379 4754 7160 
4972 3050 19531 5122 16092 14874 10090 1472 18138 
14079 9373 18938 18291 6479 1769 5038 7757 6914 
5002 14065 2354 14500 13366 6223 8209 12679 9868 
19120 4210 5686 3647 2617 584 874 7187 19979 
4439 10886 6666 8881 11632 3310 363 7012 3763 
2985 4248 7473 11384 17159 9725 14247 12126 10005 
21806 570 7318 3615 6104 113 15915 6253 2580 
1895 4952 290 5537 2218 8865 11553 5235 1884 
2723 566 6350 3018 2918 2335 5366 745 4725 
506 6471 7453 1038 641 4421 452 5286 7066 
244 557 4936 877 4830 5888 4511 17281 6615 
2632 6371 4396 5740 1708 2125 7157 925 4675 
2012 354 69 4682 3298 1883 1466 6887 4290 
16440 4039 4591 396 2423 7672 9506 4603 6511 
3314 1271 1293 18508 3070 11481 5137 3823 14336 
6871 2222 12623 10473 3947 3029 6162 3516 13414 
15069 8635 896 7778 5171 6064 1718 6269 5716 
15489 8698 19010 12697 8235 8275 4364 13455 8643 
19432 4004 788 18789 2025 1074 21717 6829 3863 
11725 12029 10243 7100 428 16116 8725 15683 18170 
6617 11005 3684 7732 9585 1550 5163 14783 12614 
4974 18717 20403 8935 11254 13439 12878 19794 21030 
555 6918 19558 12194 19079 8822 8292 16239 12227 
5761 7433 6146 11726 10818 2908 10254 5130 3899 
10619 12433 10053 10851 18534 16709 13141 16327 18816 
3071 10073 17272 8328 19243 20276 10802 3319 5629 
4240 7224 6435 2914 1251 18442 17292 8148 14710 
4181 10054 9428 10840 19009 17669 11228 10994 18058 
14110 20142 11885 21539 21945 10975 19998 8777 8137 
3453 3172 408 7499 12731 617 16776 16984 16721 
17350 14348 12019 8713 17195 4304 17251 4095 5850 
2510 5452 16545 7599 14448 6851 11960 16490 7862 
17935 14274 14008 4323 6779 8888 16051 9247 19212 
9761 7577 16743 5136 5989 18924 4895 9214 3337 
9004 14904 21626 17869 7924 16855 16204 8589 8737 
16884 9479 11833 17114 853 21861 21481 16370 17004 
14866 21408 12229 18273 1590 18850 7262 20001 21075 
8719 7026 11060 7451 4947 21197 2728 7298 17456 
14333 19443 16237 16450 4025 9207 20062 18053 5518 
17393 13118 8268 17214 16186 16425 18874 18391 7456 
16532 3612 3003 21729 3550 15507 13266 14149 16479 
9497 14762 10374 9684 21397 8236 18490 8985 21448 
1561 17792 11929 8687 13648 15585 13780 16171 12459 
2172 17204 311 5628 1219 19750 5501 12517 20609 
12507 13513 8591 8225 13334 15470 12886 10134 21961 
17601 20966 7956 9699 11752 16805 17816 14518 15286 
3934 6769 1753 3500 2178 14504 17521 13312 8792 
11902 11700 12442 14731 14766 13273 7920 19733 12740 
16824 9574 7211 15282 20206 8989 2166 3059 7541 
7728 19335 21414 12406 1938 16710 12745 12505 16680 
17919 12953 12129 18171 17951 8228 16987 8597 12457 
5254 14971 15059 1329 1897 3177 542 12014 5906 
14734 4918 11322 6099 13857 11086 8859 13737 13076 
18074 16460 12464 18452 8769 8487 20106 18647 1231 
20568 14529 14006 3520 13342 17293 9502 17367 9447 
4151 1525 4979 4487 248 10645 17636 8285 14482 
16890 8755 5007 11002 14097 10835 8056 15205 11105 
9675 14445 12236 12495 20260 18116 14044 20704 16568 
10855 18704 2513 16221 15780 9548 21575 5559 19840 
9542 9385 14201 9719 13089 11647 18263 15273 17042 
8974 15065 11636 17650 16293 9757 11247 10088 16616 
15191 12617 2507 16334 19449 18307 9139 2633 321 
4233 5193 634 672 12301 11099 991 17981 11520 
5359 15246 17663 1944 18622 11811 16496 16241 10582 
13948 21115 12952 10223 13389 20775 17501 9348 9400 
2209 2913 3574 3228 4805 1508 1972 19758 16461 
21334 12284 14727 17447 9045 4236 9978 4926 12695 
11957 10920 20449 17047 8106 966 16009 7919 4184 
16658 15026 1720 19092 13972 21668 21671 9110 17595 
16662 20083 17257 6049 540 8834 18295 11858 10103 
15700 21662 10292 14495 6098 2904 583 12109 6988 
5822 18443 21010 21503 19980 19775 20578 21476 17287 
21479 11915 12622 18626 19452 14214 11203 13391 12598 
10524 12436 20324 13299 8531 15198 19267 19899 10171 
5364 13908 15256 11584 2714 4622 4471 2604 4894 
947 20989 13146 19337 2789 16077 15079 5084 17068 
19155 20960 21683 12605 20194 19964 10933 16500 3492 