# vtk DataFile Version 4.2
Generated by LIGGGHTS
ASCII
DATASET POLYDATA
POINTS 10000 float
-0.0040821 0.00126247 -0.0409017 -0.0023298 0.00089417 -0.0410384 -0.000283485 0.000895894 -0.0411062 
0.00224931 0.000896228 -0.0410412 -0.00544967 0.00244531 -0.0407389 0.00133473 0.00243986 -0.0410665 
-0.00321337 0.00284299 -0.0409792 0.00219211 0.00401662 -0.0410492 -0.00468639 0.00407158 -0.0408359 
7.82076e-05 0.00473666 -0.0411023 -0.00638721 0.00526815 -0.0406033 -0.00260364 0.00533639 -0.0410264 
0.00127836 0.00608951 -0.0410793 -0.00496936 0.00646706 -0.0408097 -0.00326209 0.00700571 -0.0409699 
-0.00138728 0.00713229 -0.0410849 0.00270497 0.00739958 -0.0410102 -0.00595118 0.00796175 -0.0406665 
-0.00345973 0.00879032 -0.0409575 0.00050121 0.00842372 -0.0411087 -0.00686406 0.00950107 -0.0405304 
-0.00508571 0.00953268 -0.0407848 -0.00188831 0.00969011 -0.0410606 0.00216376 0.009116 -0.0410487 
-0.00376713 0.0107734 -0.0409279 -0.000135164 0.0101018 -0.0411063 0.0015396 0.0107982 -0.0410079 
-0.00547723 0.011291 -0.0407411 -0.00211554 0.0114717 -0.0410501 -0.000245765 0.0118978 -0.0410984 
-0.00577465 0.0130644 -0.0406929 -0.00376249 0.0129687 -0.0409313 -0.00152833 0.0131683 -0.0410778 
0.00164753 0.0125884 -0.0410703 -0.00489587 0.0146932 -0.0408122 -0.0030082 0.0146369 -0.040989 
0.000195803 0.0136762 -0.0411022 0.00171005 0.014645 -0.0410711 0.00015242 0.0160022 -0.0410997 
-0.00603094 0.0160764 -0.0406574 -0.00384885 0.0163062 -0.0409253 -0.00190452 0.0163134 -0.0410605 
-0.00515716 0.0176426 -0.0407764 -0.00283657 0.0178507 -0.0410024 -0.000390816 0.0177194 -0.0411058 
0.00155044 0.0176411 -0.041075 -0.00604478 0.0192021 -0.0406537 -0.00404008 0.0191832 -0.0409025 
-0.00164887 0.0192004 -0.0410673 0.000635135 0.0191942 -0.0410995 0.00259437 0.0191972 -0.0410195 
-0.0126462 0.0008973 -0.0391086 -0.0109461 0.00117148 -0.0396229 -0.00922901 0.000894758 -0.0400532 
-0.00714472 0.000897431 -0.0404788 -0.00547034 0.000895731 -0.0398295 0.000981761 0.000896141 -0.039768 
0.00405122 0.000923257 -0.0408999 0.00596594 0.00104018 -0.0406659 -0.0119654 0.00262219 -0.0393208 
-0.00819701 0.00234204 -0.0402766 -0.00667286 0.0022031 -0.0393412 -0.0041381 0.00239461 -0.0395106 
-0.00198074 0.00218641 -0.0398485 -0.000366533 0.00259034 -0.0405229 0.00312784 0.0024647 -0.0409844 
0.00491822 0.00250252 -0.0408043 0.00771443 0.00185063 -0.040374 -0.0102694 0.00306369 -0.0398015 
-0.00686143 0.0035363 -0.0405269 -0.00148582 0.00398671 -0.0406318 0.000882254 0.003706 -0.0398683 
0.00630948 0.00395333 -0.0406196 0.00906037 0.00378277 -0.0400913 -0.0113062 0.0044999 -0.0395193 
-0.00853691 0.00410099 -0.0402076 -0.00304363 0.00414988 -0.0397566 0.00398047 0.00405015 -0.0409105 
-0.0111816 0.00642854 -0.0395496 -0.00978311 0.00536234 -0.0399211 -0.00794365 0.00575647 -0.0398572 
-0.00497114 0.00525525 -0.0394994 -0.00331331 0.00592762 -0.0394942 -0.00108838 0.00566369 -0.0400984 
0.00345723 0.00576909 -0.0409578 0.00520452 0.00536306 -0.0407696 0.00730645 0.00560485 -0.0404502 
0.00913014 0.0055789 -0.0400737 -0.00913214 0.0070926 -0.0397445 -0.0072925 0.00742195 -0.0395987 
0.000108167 0.00701519 -0.0400686 0.00454894 0.00677465 -0.0398719 0.00601285 0.00745969 -0.0406617 
0.00796384 0.00727736 -0.0403253 -0.0121151 0.00793998 -0.0392772 -0.0104309 0.00833056 -0.0397623 
-0.00842562 0.0086688 -0.0402287 -0.00438436 0.00780992 -0.0397652 -0.000939677 0.00853984 -0.0400622 
0.00159253 0.00802439 -0.039747 0.00391193 0.00872651 -0.0409198 -0.0127491 0.00967055 -0.039078 
-0.00965733 0.00994223 -0.0399525 -0.0029421 0.00986459 -0.0396154 0.00611487 0.00925556 -0.0406476 
0.0079504 0.00908052 -0.0403264 -0.0112733 0.0105906 -0.0395279 -0.00793678 0.010965 -0.0403327 
0.00496298 0.0106292 -0.040806 0.0078985 0.010888 -0.0403342 -0.0111536 0.0123861 -0.0395564 
-0.00953295 0.0117331 -0.0399808 -0.00453145 0.0121912 -0.0395102 0.00348534 0.0116405 -0.0409566 
0.00509741 0.0124155 -0.0407871 -0.0126646 0.0132476 -0.0391009 -0.00771515 0.0127644 -0.040372 
0.00746523 0.0126499 -0.0404237 -0.0108801 0.0146744 -0.0396401 -0.00901355 0.0139987 -0.0400988 
-0.0069061 0.0144565 -0.0405233 -0.0010707 0.014815 -0.0405165 0.00331106 0.013843 -0.0409716 
0.00502044 0.0143779 -0.0407923 0.00691356 0.0144008 -0.040519 -0.0124925 0.0152964 -0.0391618 
-0.00953784 0.0158153 -0.0399804 0.00411763 0.015936 -0.0408968 0.00885829 0.0150732 -0.0401363 
-0.0117586 0.0169655 -0.0393813 -0.00780276 0.0160785 -0.0403567 -0.0012756 0.0172143 -0.0396364 
0.00239757 0.016185 -0.0404542 0.00587618 0.0162349 -0.0406831 0.00880075 0.0168885 -0.0401553 
-0.0101075 0.0175142 -0.0398425 -0.0069351 0.0176456 -0.0405108 -0.0038449 0.0174792 -0.0395594 
0.0034782 0.0176166 -0.0409641 0.00502592 0.0175929 -0.0398737 0.00715897 0.0175515 -0.0404708 
-0.0116343 0.0192012 -0.0394232 -0.00980993 0.019207 -0.039335 -0.00781756 0.0192046 -0.0403543 
-0.00275169 0.0192013 -0.0396473 -0.000487604 0.018906 -0.039726 0.0046845 0.0190663 -0.0408387 
0.00645898 0.0192017 -0.040591 0.00829868 0.0190973 -0.0402591 -0.0148335 0.000893595 -0.0383375 
-0.00789754 0.00089689 -0.038846 -0.00621974 0.000894291 -0.0382022 -0.00315317 0.000896129 -0.0394073 
-0.000773713 0.000898493 -0.0393851 0.00285661 0.000895383 -0.0393502 0.0048307 0.000899767 -0.0392796 
0.00657589 0.000895843 -0.0388459 0.00836659 0.000897453 -0.0389958 0.00992743 0.000903575 -0.0398857 
0.0115375 0.00160099 -0.0394518 -0.0156174 0.00247932 -0.0380249 -0.0137495 0.00226635 -0.0387338 
-0.00922767 0.00209706 -0.0387049 -0.000118582 0.00272698 -0.0387461 0.0018038 0.00235535 -0.039122 
0.0036768 0.00248918 -0.0392775 0.00626801 0.00251671 -0.0395511 0.00938415 0.00237991 -0.039016 
-0.0131348 0.00393817 -0.0389543 -0.0106577 0.00303328 -0.03805 -0.00549493 0.00355279 -0.039322 
-0.00399863 0.00371385 -0.038305 -0.00174361 0.00348337 -0.0386383 0.00269015 0.00383199 -0.0386159 
0.00495685 0.00373532 -0.0394394 0.00748863 0.00379609 -0.0392214 0.0108353 0.00324229 -0.0396496 
-0.0151672 0.0042098 -0.0382003 -0.00937871 0.00415625 -0.0386246 -0.0072011 0.00437064 -0.0389727 
0.00230293 0.0052007 -0.0397065 0.00400644 0.0052296 -0.0391298 0.00618028 0.00502195 -0.0391829 
0.0113653 0.00504299 -0.0395003 -0.0148528 0.00597466 -0.0383261 -0.0129332 0.00572193 -0.0390132 
-0.00937001 0.00603852 -0.0383097 -0.00674355 0.00605966 -0.0385557 -0.0019294 0.00526438 -0.0385659 
0.00054725 0.00540744 -0.0394033 -0.0137127 0.00731798 -0.0387409 -0.0104145 0.00749269 -0.0381724 
-0.00825263 0.00742673 -0.0380794 -0.00505688 0.00667721 -0.0384131 -0.00336957 0.00727339 -0.038271 
-0.00197642 0.00711358 -0.0393924 0.00285705 0.0068494 -0.03927 0.00670076 0.0067448 -0.0391679 
0.00897597 0.00691734 -0.0388852 0.010547 0.00667084 -0.039724 0.0123738 0.00748684 -0.0391971 
-0.0152816 0.0079684 -0.0381572 -0.00580229 0.00860629 -0.0389941 -0.00197253 0.00872974 -0.0386197 
0.00321777 0.00862397 -0.0392716 0.00499653 0.00847167 -0.0394875 0.00949701 0.00823202 -0.0399907 
-0.0161074 0.00952611 -0.0378162 -0.0144393 0.00958137 -0.0384804 -0.0110605 0.00916308 -0.0383083 
-0.00919248 0.00888011 -0.0385765 -0.00743417 0.0093498 -0.0388367 -0.00398903 0.00898059 -0.0384535 
0.000431336 0.00925273 -0.0391462 0.00207669 0.00999611 -0.0394848 0.00686813 0.00989913 -0.0391518 
0.0103206 0.0098823 -0.0397852 0.0126565 0.00925604 -0.0391079 -0.0121349 0.0110898 -0.038043 
-0.00861499 0.0106953 -0.0386977 -0.00645277 0.0107704 -0.0393349 -0.00469161 0.0104182 -0.0392727 
-0.00104286 0.0102654 -0.0395739 0.000590445 0.011005 -0.0394977 0.00428398 0.0100976 -0.0392384 
0.0119125 0.0108768 -0.0393398 -0.0140258 0.0113247 -0.0386376 -0.010235 0.0113331 -0.0382506 
-0.00757219 0.0122425 -0.0386595 -0.00282673 0.0116438 -0.0394141 -0.000807354 0.0118079 -0.0386859 
0.00238967 0.0118048 -0.0395499 0.00485081 0.0117344 -0.0387546 0.00627514 0.0114589 -0.0398081 
0.00837226 0.0120338 -0.0389984 0.00987317 0.0116361 -0.0399017 -0.0155903 0.0130264 -0.0380337 
-0.0096449 0.0129757 -0.0386889 -0.00606925 0.0131918 -0.0389242 -0.00183039 0.0131367 -0.0393131 
0.000500003 0.0127961 -0.0395672 0.00210473 0.0136007 -0.0396601 0.00409843 0.0131779 -0.0395052 
0.00589718 0.0133457 -0.0394802 0.00933934 0.0133473 -0.0400135 0.0116493 0.0126513 -0.0394194 
-0.0139674 0.0144041 -0.0386555 -0.0111644 0.0137588 -0.0381294 -0.00946665 0.0147563 -0.0385287 
-0.00768302 0.0146666 -0.0389258 -0.00445603 0.0139605 -0.039238 -0.00285402 0.0144008 -0.038568 
-0.000429556 0.0141966 -0.0389379 0.00775264 0.0137767 -0.0390622 0.0109224 0.0146552 -0.0396271 
0.0125882 0.0141749 -0.0391263 -0.0154009 0.0153406 -0.0381123 -0.00592762 0.0149731 -0.0390964 
-0.00432324 0.015752 -0.0392903 -0.00252574 0.0159445 -0.0394199 -0.000341936 0.015976 -0.0387354 
0.00102913 0.0150856 -0.0394767 0.00394229 0.0149661 -0.0393981 0.00581661 0.0151244 -0.0392762 
0.00735303 0.0159447 -0.0396907 0.0122932 0.0159461 -0.0392185 -0.0141782 0.0165685 -0.0385822 
-0.0103192 0.0163822 -0.0384661 -0.00839196 0.0162926 -0.0386778 -0.0066503 0.0166163 -0.0390632 
0.000544388 0.0172455 -0.0396454 0.00195343 0.0164292 -0.0387331 0.00645572 0.0172539 -0.0388378 
-0.015557 0.0175908 -0.0380416 -0.0130369 0.0181664 -0.0389765 -0.010772 0.0181113 -0.0382841 
-0.00848478 0.0180029 -0.0392032 -0.00246797 0.0178704 -0.0384726 0.00336412 0.0174354 -0.0391933 
0.0111297 0.0177625 -0.0395673 -0.0163 0.0192006 -0.0377336 -0.0144274 0.0192 -0.0384835 
-0.0067375 0.0186539 -0.0390313 -0.00486214 0.0190073 -0.0393148 0.00155442 0.0187302 -0.0396313 
0.00356615 0.019203 -0.0394476 0.00533736 0.0192044 -0.0391467 0.00711788 0.0191853 -0.0389155 
0.0100491 0.0192005 -0.0398527 -0.0187816 0.000902267 -0.0365579 -0.0171664 0.000900182 -0.0373462 
-0.0131882 0.000895038 -0.0373979 -0.0112687 0.000894408 -0.0378874 -0.00953949 0.000896575 -0.0374033 
-0.00468533 0.000892118 -0.0371522 -0.00197299 0.000893735 -0.0380528 -7.10459e-05 0.00122191 -0.0377677 
[...]
POINT_DATA 10000
FIELD FieldData 7
id 1 10000 int
5144 955 495 5981 6268 2481 6687 2565 2725 
5872 2938 1664 690 479 2479 3173 2668 463 
3599 3811 8550 411 4629 8569 1677 797 4994 
570 3018 8652 2945 4726 1529 8773 3517 6778 
3170 3113 2323 9883 1799 6444 3488 4118 6180 
7078 1479 3973 5935 9519 3368 1267 9170 4482 
4849 5264 4869 4867 4172 1362 4912 9438 1016 
1750 4673 4518 1392 6583 404 8816 3494 3893 
1383 994 8780 88 3801 8039 2614 4601 3916 
5118 4128 2835 7411 4501 5914 7329 2706 8055 
9961 3499 1970 7418 7996 4669 9774 1710 8519 
4748 1256 3009 902 1833 4530 3249 2371 5468 
6418 1325 3092 2980 4443 789 3552 7434 4506 
3270 334 1865 508 2006 766 4004 2085 3770 
5746 986 1753 6009 4532 9291 3724 9422 1275 
3110 9608 1794 4978 9418 3192 4064 8025 5305 
2260 2092 3253 8911 2131 216 6307 5001 2867 
9512 2995 379 1069 9535 7001 6715 2380 9213 
4793 6025 2420 5040 5758 7489 1192 1996 2531 
1259 9280 7918 5260 1935 577 3410 9592 4926 
2149 3059 8378 3079 625 1929 1136 6126 5548 
460 7077 1422 9953 3546 9701 9822 2116 3802 
3638 637 4184 8764 7539 92 4716 7885 4228 
4472 8085 7705 2109 839 3825 509 7754 616 
613 692 761 2931 4622 4056 6109 518 2031 
4866 8382 5956 9022 9284 5356 3152 859 1342 
3760 3763 3649 4143 197 857 3512 4667 1600 
3848 2336 943 6991 370 1475 2457 3027 4554 
728 3846 3438 311 8552 1531 22 6056 1074 
1204 1120 888 741 1689 3932 1212 8994 3697 
2163 4803 264 9726 1248 1817 4008 4717 242 
4853 2018 3774 3669 2117 3567 1807 8192 2926 
1518 1006 1224 5853 3958 6436 7054 8611 2561 
1402 6508 4642 8858 2173 6395 16 8554 2217 
8030 4083 3890 8963 53 4108 3837 5612 1697 
254 3900 6599 7348 2230 2354 4272 2761 7193 
2307 3131 2083 1512 6277 7952 3994 4214 2971 
4682 1065 1309 3645 3308 6673 6133 5534 5697 
4722 6171 2803 8765 2202 7358 6516 954 6614 
155 5851 2329 7440 4595 9396 295 2609 1960 
2147 392 270 8153 2007 8518 1164 8113 8923 
1244 9845 2465 8351 4852 3406 1044 2766 2588 
8852 5905 3579 2595 1783 4233 3193 1552 2574 
1394 2883 8349 1345 7144 2032 2467 7410 7225 
4907 3385 4841 2292 2907 2644 9996 1335 729 
5079 2600 160 3859 1767 7230 9099 3426 3993 
3419 717 3910 1323 1498 4520 2321 5945 1436 
2948 4845 5676 9694 1316 7470 1487 6565 2118 
4229 3318 3339 5307 3033 6815 3705 2884 4658 
109 3876 4150 2806 1186 3824 7046 4909 6144 
719 5172 8173 4426 3015 9190 3085 2844 1129 
3271 5057 8618 5178 912 7604 2749 1614 1906 
2103 1940 2254 6588 6046 8397 1879 2421 5141 
5607 9333 2133 2530 5061 4153 6491 3344 8592 
2047 7766 7027 1489 4564 4510 7669 3309 9717 
590 6527 1055 7564 2568 7803 3417 4341 4427 
6638 4329 4483 939 5866 4176 3116 8237 1894 
2669 5120 8124 418 5402 5703 4713 8790 7676 
6430 3543 3472 1747 1796 8019 1784 6852 1318 
180 4208 6460 1533 4733 3915 7200 1561 4615 
8516 4242 4002 1087 6415 4454 4250 913 4618 
2359 4455 8723 6080 2743 3593 2679 2908 5961 
4553 3595 6222 3397 1416 3169 4500 1972 1739 
1130 2075 3429 2087 8698 2940 6761 5372 8312 
2755 8146 2554 3928 1603 3612 8586 3284 1800 
6884 6373 3246 2339 1057 3258 601 922 1032 
3608 1814 3013 2702 9704 2811 1425 6970 998 
4317 6404 1026 2804 645 5266 8751 1849 8871 
4783 5609 1014 1079 10000 1897 3287 4738 7964 
1597 2664 3816 3955 8549 519 2309 7247 4104 
3388 3281 2649 2414 3575 3883 7176 4760 3538 
9338 3977 8190 4325 4235 9369 7106 4025 9607 
9595 985 3001 4441 6942 4316 3408 4423 6924 
6073 9936 4074 9095 5952 9727 572 8361 5864 
949 3143 6943 1952 4749 7463 7276 3623 4205 
8610 3430 1729 1686 2079 2447 3035 3596 4289 
8937 1780 3556 5790 2860 3606 2922 1294 2462 
3156 1791 9235 7060 5593 2238 5884 2234 3598 
150 2306 4745 2941 2873 1176 4286 6789 2558 
884 1449 8975 3474 143 4925 332 3692 1876 
2582 60 5970 2901 4626 8556 3377 1555 677 
245 5732 1045 4756 2305 3764 2857 4178 6087 
5116 7442 4236 3470 6156 2606 865 2417 194 
1223 2162 2960 273 7696 9997 8502 2807 5294 
4101 174 1705 3207 4204 1251 6043 5473 9079 
1139 326 4929 4276 642 4884 6707 2618 4411 
5293 8007 9565 4479 4457 3871 4802 3460 6524 
787 4217 2519 1856 4268 72 8134 1793 6830 
3708 5632 3130 7141 4109 3571 2858 5410 4710 
802 1081 6812 9902 4300 7480 4307 9108 8269 
9428 7611 8071 4874 4584 8469 3243 2243 9034 
7311 6364 2979 989 966 2388 6148 3855 86 
6402 1922 438 5846 8334 1456 2487 9356 5947 
8514 950 8626 7100 3202 7152 8197 5323 2967 
3221 1015 6192 102 3765 8103 4476 452 4776 
6607 65 4715 1086 8358 6645 4164 7424 4548 
4332 8540 2207 2937 5067 1374 4751 7423 4822 
4107 3534 2051 9057 1773 8052 9068 3352 1693 
599 7618 5154 4863 4587 8313 9061 7267 3604 
8782 247 1619 8243 9515 3549 7711 5250 3362 
6721 3089 473 250 5207 8327 8033 5642 3792 
1041 8011 5086 9300 433 1414 68 1528 4895 
6184 5269 2686 2102 6076 3535 9271 477 4310 
20 8715 2667 9699 3327 9906 1990 8768 2797 
2999 945 5484 874 1839 3988 1792 7670 2635 
5311 2222 7289 7000 1005 6428 4918 4627 5317 
2151 2274 2160 4067 1209 2295 4397 4811 3435 
4857 3570 1171 4484 5032 5661 9262 3867 9154 
4784 3589 3633 6505 4473 11 9531 4737 5493 
4941 9489 1477 4456 410 1330 4677 5582 4100 
9518 39 5818 7312 7223 4334 6028 5634 624 
1111 3074 9526 4437 6615 3587 7168 3073 472 
6467 4462 2068 3392 6781 3787 9978 4313 8529 
2956 6407 1453 6054 1735 2225 3065 6885 2030 
8123 1189 9025 1813 976 1566 3516 464 2408 
9117 2061 1650 1889 4833 4705 5646 5373 2989 
2084 1822 3220 3772 7011 9197 3245 315 1973 
8882 1100 2398 4666 2633 3963 3451 182 2014 
6119 2602 869 974 6619 8546 6401 1412 9737 
6777 341 4947 6240 40 4365 6670 7528 158 
5772 4810 8557 7245 6035 2929 7353 7506 8623 
875 4846 2077 2879 4804 2471 1785 4997 1718 
8575 7923 6773 4541 1666 1661 1524 9207 3827 
8848 581 4555 422 3042 2713 4377 1404 8384 
8807 9132 263 6976 3424 5637 2204 9799 8731 
9723 6114 3300 6006 7186 8791 5126 699 3696 
7089 7444 8952 1802 975 4755 4318 8834 4120 
1553 3905 1641 6862 1625 15 2374 5331 531 
5288 9915 4983 8932 4331 8789 1916 2794 7837 
736 4646 2498 4545 2662 2626 516 7681 2282 
1197 1177 3 5685 2699 6398 3829 9679 2208 
8364 9220 1862 6920 2071 2632 4142 1558 5487 
2714 3493 819 1321 3946 3879 3254 9696 2985 
6045 2360 8320 5425 4787 4460 772 8895 4550 
5622 1078 2842 9184 3502 4974 2425 6423 3725 
1058 3924 7978 1071 3265 3914 1847 1874 2854 
9288 7802 3522 1668 37 2692 1716 108 2463 
7861 2052 900 8422 301 3463 2760 5824 9514 
9342 6839 4017 6389 8829 7503 4928 7561 3620 
688 5174 952 5605 4831 9420 2698 4458 1779 
1742 737 1771 1194 4671 2597 4192 4293 3099 
144 6965 2847 4030 7725 3126 3381 1113 6875 
6185 7123 2176 3992 209 1797 4401 2585 3588 
6858 5007 2659 9962 3212 7379 4536 7213 279 
5555 3174 1991 6325 5058 7472 7771 8955 3823 
5201 3198 1585 5249 9297 3714 2718 4263 5062 
8154 1639 5436 9382 4198 2175 4690 8212 8804 
9662 6061 1424 3500 620 2015 4179 4886 3002 
804 2891 1381 3936 4906 7977 2331 4394 1870 
9605 7103 6484 7674 4369 663 4808 3572 8870 
2353 8801 7499 8979 621 4264 3141 453 5133 
3405 4558 5012 8239 395 7028 6397 6023 9775 
7631 8353 4485 1997 661 3313 3072 425 1108 
6011 3503 8367 5306 7412 2932 2792 2930 9974 
2281 6658 2179 7076 6469 3659 745 6293 3449 
5160 4147 2183 6522 9375 3821 3842 7737 3822 
4273 9008 4905 8413 5985 8275 4814 6362 8634 
4255 1883 5316 9437 4649 5392 3329 7199 2619 
1213 7633 9596 2348 6482 4761 8359 9217 9975 
462 1193 1514 6272 1080 7154 8301 7602 3956 
9486 1434 4414 5777 3626 1240 3858 8728 6994 
3476 2402 2251 2974 5867 9813 3715 9988 1179 
1034 5320 803 2872 339 402 9354 1651 9584 
2491 4741 3299 7304 872 2404 8174 7364 5139 
5983 4311 1127 7016 6650 5515 3518 4234 3367 
1958 834 1795 4106 1462 4410 8001 140 6214 
3762 1754 9066 4319 4611 5496 7860 1821 8984 
638 3569 5903 2535 5684 6960 5138 4028 1290 
2637 7706 1473 6624 811 8328 3293 409 2464 
5784 2317 1092 6689 608 7191 1411 2182 1703 
8143 4759 925 9721 375 110 6069 6548 5623 
2566 9658 6587 6388 923 7428 6742 4350 4277 
8057 7938 7603 9161 9714 493 2263 3028 528 
2486 6071 9026 8689 6969 4481 3700 1502 8365 
5689 9474 9670 5924 5569 4202 2543 5871 3504 
4736 5842 9875 3296 9683 8666 2890 2972 204 
5694 1832 4260 2837 2656 1540 7169 5566 4988 
1765 1634 6137 169 8820 4116 4037 3288 1743 
5100 3233 6977 8868 7736 319 5848 4363 4275 
8117 5885 5761 734 5531 6044 523 6847 6503 
1007 5056 6708 8925 6982 7174 3050 727 177 
3172 7836 2093 8246 5411 4676 107 3373 9939 
7529 910 535 4282 9630 3129 8883 4212 447 
8340 6178 4788 8474 8468 256 2099 5300 2456 
3154 3048 4391 2011 8099 673 6782 9926 1912 
3789 9036 5775 1472 3418 6289 8999 723 7744 
2445 9957 9130 1300 2853 7563 6134 6341 7793 
1367 1695 5625 1896 8544 4801 1662 4160 916 
2547 3625 8251 9994 4213 2358 1011 7774 4416 
3305 8075 965 5643 8314 3150 6211 9028 1076 
4606 7557 9383 4105 6419 4971 2757 5691 8968 
47 7801 833 1917 3776 5640 929 5916 589 
9949 8847 708 4060 2442 159 457 5216 8485 
9751 6312 4674 842 5239 4053 3754 1233 4949 
7797 3434 7988 2935 7430 4324 7086 7986 9056 
9620 6979 2756 3140 7652 1756 562 3950 54 
8261 3197 1683 6132 8875 2210 3681 580 2181 
252 4827 9564 4720 4375 4358 7033 7345 1872 
9069 2877 8451 6571 8832 2249 703 3043 4873 
9308 1808 6251 4223 512 4078 7357 6534 4546 
2557 3917 1140 7219 988 3677 3885 5041 7258 
2072 9024 5900 6270 4542 8076 4297 8074 7157 
536 5644 5393 125 5449 5088 2212 6691 6909 
4435 7375 8206 9330 2003 6656 4843 578 9323 
7765 8899 9466 5528 2598 5049 5813 9871 3357 
3693 8122 4173 2201 3454 9302 9010 4378 5559 
6546 4085 4026 9124 4879 7931 8533 8381 2816 
9894 8267 6339 1356 5245 9320 3285 5843 7719 
8389 7118 6098 595 1429 4697 1368 7058 5097 
5361 1530 67 6183 6151 8985 7091 3660 9027 
4890 1706 6049 3045 7117 7942 4171 2678 8119 
4735 1913 8668 794 2642 8845 8286 175 9910 
7935 7397 1868 3585 6819 3445 1590 4789 456 
7378 9644 6384 4084 1811 3611 6301 721 4961 
1722 5175 9693 4070 768 432 8997 1965 9891 
5014 4942 488 6393 5193 6391 7780 1183 2345 
6580 9102 3856 838 6079 1157 8714 1274 8 
7187 539 9017 9359 7342 5814 7137 286 4525 
7843 817 561 1523 585 1934 4259 5929 9581 
8252 8545 5406 5718 8205 6499 7130 2657 4656 
5229 6829 7965 1599 4504 8193 3109 8561 731 
1393 743 8319 1932 2836 289 4522 1123 6498 
5767 459 1938 809 8417 7857 9664 6115 1132 
7150 4701 4920 5966 3576 481 4897 1337 7937 
5148 7671 3137 7846 3739 5955 6437 5456 8838 
9415 5600 8371 7862 1236 8745 870 9844 4049 
1726 7993 6387 9922 2382 1403 8642 9880 8118 
2114 6646 6284 1959 6366 2384 9672 4876 9946 
5659 4914 6369 6097 6665 8187 793 1902 9490 
7840 2555 9409 3694 9725 1824 6322 6842 2973 
5240 7682 5908 9218 98 8290 6901 1119 2119 
845 1351 5701 1568 6555 1717 186 7333 941 
4323 310 799 287 2122 4639 5381 3590 8256 
7974 5759 6246 455 9935 3215 6838 2242 612 
6717 265 3211 6135 2157 203 1825 9677 978 
7714 2898 9762 4693 7211 2418 357 1806 3384 
1596 990 5011 7581 5707 6947 5366 8635 6655 
2441 2401 1629 571 5312 1982 9240 3142 5232 
5664 3721 4175 6531 2517 21 8967 724 6895 
6916 1548 5438 7980 2255 627 2712 6064 7264 
9483 1406 5475 757 5187 1556 4166 4405 290 
3214 9600 1903 7913 6805 2512 6218 825 5259 
3457 1084 9817 5045 7530 8969 1559 6422 9646 
4488 3466 4125 6732 7921 3132 3177 6358 5749 
7050 5272 2584 9896 6083 2245 9578 1401 2950 
9386 8669 6485 5195 237 6193 6890 9087 1981 
4463 7757 551 3960 9659 8991 3390 3319 7124 
7870 8704 5246 3179 4746 6309 7386 9194 8986 
8273 2156 6566 1319 2284 7079 2734 1409 5277 
1920 9925 1214 7181 1635 7107 5668 8757 5603 
3908 9643 1301 62 6060 4894 10 6882 8080 
1350 9399 5407 6479 1702 9629 9340 4434 7433 
8447 806 9468 2607 9999 3498 5865 5652 1235 
3621 7356 7601 9918 3057 4539 9507 5881 2188 
6712 5630 3261 7760 7810 4475 1680 2875 3423 
2799 9327 347 1133 6290 8483 8892 4381 4339 
6951 5525 2513 6790 8023 4575 1517 7887 687 
4728 4344 1187 6675 1905 458 5523 4063 3010 
7844 9348 9497 6710 7415 1173 8379 8646 5540 
3039 3733 4374 5971 9011 908 9171 9487 356 
215 1469 2952 222 3003 532 5391 575 1901 
3650 4991 684 239 827 4203 4357 1278 8178 
9165 9682 1098 7133 3975 7794 3831 7061 2056 
7090 3330 5388 9072 9071 4753 2813 5130 3370 
4001 1258 3387 8360 6266 6286 8362 7029 2627 
3672 2818 305 8304 8641 1764 9201 3783 1962 
8038 2933 1067 3437 2604 760 1704 8284 5968 
6486 2903 5561 4854 8547 715 763 4009 288 
9394 9463 7558 5804 4524 4975 5665 5633 7941 
877 5836 6226 9041 5162 2383 9858 2868 1077 
7755 7238 5152 8480 3345 385 2874 2977 7620 
1096 4068 3077 3806 5230 8742 4114 3555 6414 
2904 3223 400 9311 9317 1701 5825 815 3808 
5922 4493 4981 6779 6611 4989 2272 7955 4773 
6112 8541 5960 4021 515 2572 8429 2490 5084 
5105 90 1669 8722 4480 7781 3194 3961 2921 
6304 5224 1166 8522 5349 7068 2735 5223 7973 
1829 6780 1536 1343 7548 5552 3334 1652 7350 
7686 396 500 5816 2397 4366 3225 1377 4643 
233 5742 3578 3341 1805 3095 5433 1 9496 
6165 4158 4610 5653 560 3456 9743 8699 1001 
8578 1091 796 5829 8366 7075 5677 9805 5830 
7177 9065 1562 7544 2484 94 7625 384 7872 
2719 1378 1975 4654 2726 4006 5877 3912 848 
5428 1971 9986 491 2800 8959 6738 6048 3189 
1604 1023 837 9870 6231 5053 8250 8466 1941 
9655 9088 168 7788 8527 5755 2428 9796 4489 
2480 7740 9698 5163 6553 5168 8766 3999 1687 
6318 1013 5750 1741 9650 8151 6800 1031 3264 
6182 1682 2266 9955 8606 9425 2124 914 8475 
3234 2189 3941 3507 8477 8392 5810 350 3796 
6233 3886 7535 5546 2717 4196 6591 1721 3342 
5074 1993 9932 964 5890 8709 6481 6957 1826 
9998 4569 3375 8268 318 2351 826 3907 6177 
6344 2510 9151 9509 1476 1592 7816 6734 587 
1714 8639 5993 134 4356 7203 8464 705 5422 
3864 5013 2611 5444 5333 7689 6063 1978 9015 
8809 2865 1375 4924 6745 2653 7589 4124 2344 
9114 4984 5879 52 4944 8951 5276 2098 163 
483 141 7554 8835 6795 6094 1943 5480 2924 
7325 8336 8470 3981 3069 8292 8494 4517 6763 
686 1324 9335 1035 2955 8415 28 7939 333 
4818 6072 1602 7930 210 993 1544 3647 9985 
4505 2981 4216 2341 2280 3307 5706 7818 6494 
4809 2504 8750 1208 2107 2277 5135 449 9536 
1373 2501 6487 9598 344 6416 7831 2992 1117 
4419 4383 937 8585 513 9042 818 6158 9563 
4299 4373 9741 2403 8692 3539 9236 7486 5615 
697 7925 6666 1983 6783 6762 9319 750 9228 
1121 9180 6347 9439 8601 1371 5648 4727 5558 
9901 6027 4453 2590 5454 7031 9529 7479 1333 
6403 6154 4312 6647 4043 9163 6938 3746 2802 
6186 4799 4487 9358 4032 2219 9431 771 7796 
6197 1500 9814 657 6247 3524 292 9157 3266 
5451 6685 5556 8671 1633 5811 5771 5928 1320 
183 8903 7538 7026 1819 9688 4121 7758 2198 
4244 3845 5788 8462 4156 593 3691 6002 269 
6582 267 1904 7295 7218 6385 4368 6274 6343 
35 6217 8315 470 95 6791 6351 8916 6598 
4096 3366 3919 932 9636 8073 80 2786 5127 
9887 8912 5599 9640 2885 1122 121 7541 2440 
1195 4387 1128 6167 1182 9408 8940 5031 1848 
4066 8372 7446 9341 3866 2475 3818 8505 5711 
1153 8702 4707 2231 861 2861 8725 5862 2347 
4347 7398 963 1838 8828 75 8600 4499 1312 
1679 8511 2375 7339 9553 8526 5073 8109 1282 
7142 7637 918 4696 2878 7491 7114 9941 8084 
7912 527 9782 6726 8746 2060 4052 4919 8957 
8717 1446 8565 5297 9307 8739 8981 6664 5776 
9043 6741 4494 6887 4767 5474 791 5039 5629 
7688 1684 3413 8368 1770 2279 7813 1532 5795 
7553 2580 6051 2655 8987 6886 1606 6672 8684 
9398 1460 885 4865 882 4486 6711 5533 7045 
236 7891 8881 3667 5696 6530 9046 8966 7363 
9963 8104 7574 5101 4943 2586 880 1448 6945 
5313 5654 7377 7399 1994 7321 7520 2412 4805 
558 6642 9968 7282 9695 2091 4815 5687 7521 
6124 4709 6291 8437 3021 5346 1395 3902 3259 
7945 3238 7772 401 4940 7354 4599 867 8887 
9182 6245 9639 71 7914 5822 8593 4775 6202 
3147 4127 327 2248 8484 58 6828 6993 2337 
7122 9484 5081 2613 3860 2257 2326 4287 9039 
6770 1028 219 6445 770 103 6876 126 2095 
9224 5512 5153 5129 3360 6310 6264 9078 9712 
2129 980 9545 9849 4695 730 8132 971 8078 
5085 5773 1474 2407 655 4973 7890 7402 2269 
7867 8207 7901 767 2631 9502 1249 2096 7943 
8525 5486 7722 4800 8234 4762 6733 2256 4824 
8428 5713 5295 1201 4099 1790 3782 268 5787 
2197 8754 7825 6608 4140 7693 4742 5482 380 
3019 4838 2395 9622 8682 3673 9690 9625 2115 
8960 6042 4995 6466 4409 4565 6471 2827 4734 
127 3394 7904 8831 3632 8961 8097 120 1575 
3712 2777 5236 9096 3843 1967 2720 3111 1410 
7636 5472 981 5939 2533 7752 670 7450 9252 
5374 1675 6409 9362 2209 2237 4936 7856 4468 
1205 3203 3286 6923 5111 3491 3044 2534 9715 
6904 5048 8879 7617 3684 3541 511 4638 101 
3380 8241 2130 6235 4082 3747 9811 2089 6919 
4398 992 1688 8839 6606 529 640 2223 1217 
7205 2027 1019 2228 7252 5526 2959 3627 4461 
4144 4240 7188 2437 6620 9146 8749 6864 7609 
2912 4840 386 4850 8625 7600 8395 2010 2038 
5550 5873 2661 5089 3185 2886 9407 7998 5071 
4512 8697 1438 8329 7990 646 9155 7877 1928 
8183 1490 6007 7616 3785 1525 5998 89 6019 
3036 9270 7222 8510 217 8095 6157 1647 3868 
4256 5780 8225 2746 8901 4585 4045 7322 8027 
2419 1131 9286 7473 3657 2405 6260 6356 6355 
7156 2472 4839 78 1617 6464 1775 7065 3295 
1298 780 6303 3157 2191 6099 6153 744 9179 
991 2112 7759 3740 7224 2411 1148 5682 7510 
1869 566 229 2373 5342 5033 5595 4571 5699 
6509 496 1125 3857 4215 1740 9488 5339 6867 
674 284 8558 3560 1234 1828 8082 1731 5876 
9178 9402 331 2167 4680 5235 7162 8675 678 
7907 1463 4617 9429 5508 6560 3489 1002 5618 
3920 3790 9444 8242 5445 5693 1789 707 3369 
235 3023 1598 1376 2546 4014 6188 3745 5821 
2581 9947 1021 8658 3453 1835 6929 8377 2221 
2978 8200 5164 6243 1937 5390 4370 7207 5616 
706 3485 4904 1892 6520 3163 2905 4465 1266 
4020 823 156 3263 9789 309 7679 8088 1468 
1313 1003 855 2496 7960 7852 3248 6111 4828 
2180 93 5586 5845 2232 3648 8928 1314 5495 
9139 9469 2593 2697 7829 4012 9794 4605 3565 
1254 5369 2601 2902 864 2889 6958 9711 4816 
3097 4586 3492 3328 4613 3322 9801 9657 2943 
6937 6863 431 565 3550 2688 5241 5748 417 
9393 1110 7458 1715 7074 1243 7301 7533 1855 
9105 4573 8446 9619 5418 4644 4210 7435 3091 
8576 1229 5477 4878 4778 3252 9761 9800 4280 
8930 7270 2174 2037 5880 1134 6629 5734 5377 
7349 5891 5360 6854 3703 3348 4665 8877 9149 
4117 8542 1159 7963 709 9301 1237 2362 8680 
8230 4112 7096 6324 829 5720 6468 7369 5736 
415 498 3614 1557 6831 5459 607 1226 5107 
3178 1063 3407 2641 4362 2881 469 5893 9115 
4892 5233 1859 5887 5575 8471 5108 3514 4955 
6538 7789 9430 8806 9321 3563 3646 5254 2578 
7879 3559 9203 7828 6855 3364 6066 8138 1272 
5919 1732 1327 2044 1389 5990 2748 9604 9239 
6029 293 3414 614 7488 4614 8907 9006 4430 
1546 5567 478 1560 6441 6888 7866 2793 2259 
1989 3473 8743 3525 9004 2913 2334 773 4630 
6005 5673 4137 2381 3450 7919 9885 633 8302 
583 5379 6241 3289 1963 7401 1451 2290 9706 
5513 8795 6851 739 5206 1302 8472 1426 8920 
1984 4077 9435 7240 1884 6955 3012 2199 4258 
4612 1882 6041 7678 3729 2346 7582 9258 9331 
7991 5218 4262 8523 7854 8492 6279 1010 4359 
9632 1303 3898 2431 4640 1877 8927 2389 5027 
2165 6594 5849 9617 8796 9867 3358 3244 9250 
6449 9769 5799 1147 7626 4954 7660 8204 9633 
6405 2695 4923 701 4243 139 7512 8288 9038 
66 2023 3734 9825 3505 5766 427 1099 7394 
4046 5954 8386 5076 5962 9126 961 3403 6476 
5094 1871 4072 6944 1748 1012 7717 3911 556 
7209 3869 7275 322 4247 6893 8939 7438 3537 
1271 3011 2650 4880 5721 6285 1273 7985 6643 
6641 9191 304 8837 1752 7826 5344 7697 79 
9414 8445 6753 4425 3641 1520 816 8223 4580 
354 4864 6408 6644 6367 3794 8335 9377 2640 
3161 8693 3685 5542 1497 3208 2379 807 4343 
5610 4791 2524 9073 2400 3356 77 1736 6940 
2041 5173 4823 9243 8203 374 1400 2676 2150 
3158 7066 1885 4648 5478 5463 6295 7819 2324 
5859 1801 6922 5426 9020 720 2218 973 3391 
6201 722 2258 1495 8479 1645 9760 436 1725 
896 6515 8056 6314 2866 967 6014 1064 2435 
8705 5809 7355 3386 2502 1778 5875 4080 8934 
308 8121 3844 4637 652 3219 631 3654 6254 
5142 1042 8355 420 1052 2829 1968 5380 3487 
7327 4939 800 8860 2432 765 6573 8137 4619 
3707 1150 3448 4993 5420 9052 8305 3119 6740 
253 8949 4631 5005 2002 5963 6354 5860 1746 
808 2522 7577 8774 8473 567 2185 1141 3008 
5912 2300 8141 1398 224 6686 4964 716 9225 
2893 3133 4915 9166 5589 9091 30 8813 9097 
5563 4641 9135 1880 2731 4372 8535 7261 1988 
8375 7627 8297 4883 7007 8370 4148 4885 7457 
3321 5802 7041 7727 4911 2559 5695 653 2991 
2240 4041 1909 801 4960 3622 3925 8326 6716 
6787 6861 378 8278 3311 8161 2870 2140 1036 