# vtk DataFile Version 4.2
Generated by LIGGGHTS
ASCII
DATASET POLYDATA
POINTS 10000 float
-0.0189964 0.000899477 -0.0364506 -0.0180147 0.00415843 -0.036949 -0.01902 0.00555157 -0.0364422 
-0.0183065 0.007174 -0.0367978 -0.0182511 0.0102534 -0.0367552 -0.0185809 0.0124331 -0.0366688 
-0.0183515 0.0142118 -0.036781 -0.018502 0.0175093 -0.0366939 -0.0179805 0.0192044 -0.0369537 
-0.020571 0.00092471 -0.0355872 -0.0208462 0.00269595 -0.0354203 -0.0181471 0.00247787 -0.0363315 
-0.0195666 0.00373375 -0.036144 -0.0209871 0.0046575 -0.0353411 -0.0208612 0.00662255 -0.035412 
-0.0198439 0.00798752 -0.0360005 -0.0181815 0.00860309 -0.0357115 -0.0198564 0.00966404 -0.0353724 
-0.0212234 0.0108135 -0.0352008 -0.0189617 0.011214 -0.0354185 -0.0203672 0.0123829 -0.0357008 
-0.018927 0.0134298 -0.0352223 -0.0205158 0.0141715 -0.0356174 -0.0208432 0.0159207 -0.0354059 
-0.019284 0.0159419 -0.0363011 -0.0177823 0.0162475 -0.0353596 -0.0200924 0.0174814 -0.0358597 
-0.0212184 0.0192047 -0.0351982 -0.0196632 0.0192052 -0.0360981 -0.0226345 0.000896507 -0.034311 
-0.0192027 0.000898797 -0.0344188 -0.0190682 0.00265119 -0.0347979 -0.022318 0.00341977 -0.0345196 
-0.0201354 0.00384716 -0.0339864 -0.0188373 0.00475333 -0.0348478 -0.0228731 0.00590973 -0.0341502 
-0.0201885 0.00563867 -0.034061 -0.0224529 0.00763472 -0.0344319 -0.0190986 0.00666287 -0.0350489 
-0.0198398 0.00825207 -0.0342307 -0.0230281 0.00927352 -0.0340012 -0.0215099 0.0090475 -0.0350223 
-0.0178375 0.0100312 -0.034678 -0.0227283 0.0110204 -0.0342527 -0.0215237 0.0123554 -0.0343225 
-0.0196959 0.0121142 -0.0340569 -0.0229705 0.0133985 -0.034081 -0.0211636 0.0140892 -0.033947 
-0.0226279 0.015149 -0.0343139 -0.0192773 0.0151103 -0.0347115 -0.0197089 0.0167933 -0.0342527 
-0.0233269 0.0175174 -0.0338448 -0.0216847 0.0174954 -0.0349172 -0.0181226 0.0176426 -0.0342663 
-0.0227801 0.0192009 -0.0342085 -0.0196827 0.018588 -0.0344151 -0.0181282 0.0192011 -0.0351634 
-0.0243836 0.000900091 -0.0330854 -0.020903 0.000894623 -0.033829 -0.0235089 0.00234154 -0.0337105 
-0.0217429 0.00235003 -0.0331959 -0.0198698 0.00223847 -0.0332419 -0.0180648 0.00214322 -0.0331259 
-0.0248533 0.00337435 -0.0327346 -0.022894 0.00371012 -0.0327261 -0.0178217 0.00382202 -0.0337004 
-0.0240985 0.0049075 -0.0332967 -0.0216508 0.00474948 -0.0335231 -0.0188142 0.00515007 -0.0330162 
-0.0249843 0.00631635 -0.0326342 -0.0212943 0.00683694 -0.0333203 -0.0191642 0.00689032 -0.0332756 
-0.0240192 0.00765734 -0.0333492 -0.0214746 0.00862455 -0.0332731 -0.018134 0.00861509 -0.0336174 
-0.0245184 0.00937 -0.0329899 -0.0248504 0.0111831 -0.032739 -0.0219714 0.0102845 -0.0327968 
-0.0204523 0.0100715 -0.0337273 -0.0188197 0.0107129 -0.0333367 -0.0229445 0.0120925 -0.0328446 
-0.0207864 0.0116346 -0.0327171 -0.0249025 0.012981 -0.0326976 -0.018042 0.0127694 -0.0338049 
-0.0231818 0.0146913 -0.0326686 -0.0195232 0.013736 -0.0333116 -0.0179381 0.0145505 -0.0335351 
-0.0243776 0.0160443 -0.0330918 -0.0196862 0.0155001 -0.0330113 -0.0213205 0.0162222 -0.0337061 
-0.0180694 0.0162873 -0.0330844 -0.0214535 0.0183403 -0.0333489 -0.0192708 0.017816 -0.0328501 
-0.0242684 0.0192016 -0.0331723 -0.018259 0.0192031 -0.0333696 -0.0264594 0.00103961 -0.0314569 
-0.02264 0.000899728 -0.0325144 -0.0209072 0.000924461 -0.0320364 -0.01909 0.000891399 -0.0323534 
-0.0237364 0.00221342 -0.0319342 -0.0265826 0.00302522 -0.0313462 -0.021199 0.0037011 -0.0321399 
-0.0189469 0.00349167 -0.0323424 -0.025908 0.00459442 -0.031917 -0.0239401 0.00560488 -0.0313528 
-0.0209679 0.00557805 -0.0320827 -0.0240973 0.00750793 -0.0315413 -0.0228939 0.00654586 -0.0324731 
-0.0216585 0.00764301 -0.0317583 -0.0199757 0.0070211 -0.0316903 -0.0177815 0.00746618 -0.0322861 
-0.0258267 0.00775238 -0.0319735 -0.0229962 0.00870625 -0.0323025 -0.0198369 0.00865046 -0.0324856 
-0.0188582 0.00992597 -0.031688 -0.0262855 0.0103877 -0.0316046 -0.0235039 0.0103713 -0.0318698 
-0.0255716 0.0120182 -0.0313186 -0.0190361 0.0122672 -0.0323947 -0.0263011 0.0136414 -0.0315813 
-0.0234918 0.0132701 -0.0316192 -0.0216004 0.0132116 -0.0324418 -0.024905 0.0146659 -0.0320648 
-0.0201066 0.0139726 -0.0316151 -0.0185187 0.0147763 -0.0318531 -0.0213577 0.014989 -0.032408 
-0.0257856 0.0163037 -0.0320049 -0.0226968 0.0164177 -0.0325772 -0.0210993 0.0170906 -0.0321056 
-0.0258974 0.0180959 -0.0319267 -0.0241953 0.0176427 -0.0322799 -0.0178857 0.0175642 -0.0317388 
-0.0245455 0.0191462 -0.0313645 -0.0226725 0.0192007 -0.032344 -0.0202742 0.0192026 -0.0323027 
-0.0186165 0.019201 -0.0316061 -0.0278045 0.00089813 -0.0302728 -0.0249638 0.000895638 -0.0304755 
-0.0231978 0.000911809 -0.030807 -0.0214607 0.000896794 -0.0303296 -0.019694 0.000894366 -0.0306625 
-0.028067 0.00265816 -0.0300278 -0.0249433 0.00268078 -0.0306889 -0.0219857 0.00223058 -0.0314202 
-0.0201157 0.00243611 -0.031477 -0.0183478 0.00215032 -0.031309 -0.0236311 0.00385088 -0.0310913 
-0.017658 0.00391463 -0.0311587 -0.0272765 0.00460736 -0.0307541 -0.0255492 0.00435271 -0.03018 
-0.022007 0.00464232 -0.0308415 -0.0198937 0.00446497 -0.0311737 -0.0256218 0.0060371 -0.0308881 
-0.0224371 0.00638435 -0.0307457 -0.0207715 0.00586502 -0.0303211 -0.0184499 0.00552343 -0.0313026 
-0.0272137 0.0069311 -0.0308096 -0.0176509 0.00695653 -0.0305701 -0.026924 0.00881054 -0.0310327 
-0.0188259 0.00824354 -0.0310497 -0.0249483 0.00915022 -0.0312634 -0.0225532 0.00937113 -0.0306923 
-0.0207637 0.00899784 -0.0309923 -0.0281753 0.0110601 -0.0299287 -0.0245997 0.0107401 -0.0305023 
-0.0211282 0.0107394 -0.0312004 -0.0175988 0.0108841 -0.0308405 -0.0272577 0.0123562 -0.030765 
-0.0225656 0.0118088 -0.0311168 -0.0194561 0.0114151 -0.0308731 -0.0246431 0.0131915 -0.0302507 
-0.0208873 0.0125001 -0.0309516 -0.0187645 0.0130797 -0.0308125 -0.0278097 0.0139923 -0.0302636 
-0.0254788 0.0147753 -0.0303559 -0.023702 0.0147663 -0.030661 -0.0220012 0.0139224 -0.030842 
-0.0270094 0.0154679 -0.0309882 -0.0222103 0.015702 -0.031004 -0.0201509 0.0157737 -0.0313022 
-0.017448 0.0159473 -0.0310177 -0.0271096 0.0172728 -0.0308902 -0.0254395 0.0176451 -0.0302566 
-0.0226638 0.0177093 -0.0313331 -0.0198042 0.0178801 -0.031144 -0.0269743 0.0192054 -0.0310152 
-0.0228897 0.0192067 -0.0303707 -0.0211267 0.0192003 -0.03072 -0.0291002 0.000900884 -0.0290295 
-0.0179953 0.000899028 -0.030067 -0.0263919 0.00194892 -0.0299102 -0.023872 0.00172042 -0.0293158 
-0.0193549 0.00246525 -0.0298534 -0.029035 0.00384807 -0.0290922 -0.0269413 0.00378667 -0.0292012 
-0.0246013 0.00333714 -0.0290518 -0.0226064 0.00287192 -0.0298605 -0.0209129 0.00338214 -0.0301753 
-0.0241801 0.00506629 -0.0292656 -0.0215387 0.004681 -0.0291075 -0.0187289 0.00444452 -0.0298047 
-0.0274782 0.00580624 -0.0294381 -0.0227015 0.00604625 -0.0290057 -0.019077 0.00621325 -0.0297728 
-0.0290988 0.00647786 -0.0290232 -0.027683 0.00757257 -0.0292013 -0.0257599 0.00757991 -0.0299811 
-0.0241791 0.00673525 -0.0299214 -0.0201634 0.00762046 -0.0300165 -0.0291855 0.00852888 -0.0289449 
-0.0227414 0.00777962 -0.0296582 -0.0185668 0.00784583 -0.0292159 -0.0277119 0.00937326 -0.0295242 
-0.0258314 0.00935048 -0.029715 -0.0240309 0.00902972 -0.0297221 -0.0214419 0.00897407 -0.0293353 
-0.0179171 0.00934775 -0.0299643 -0.029449 0.0109519 -0.0286712 -0.0262722 0.0110754 -0.0299528 
-0.0227876 0.0102979 -0.0291694 -0.020166 0.0101798 -0.0297744 -0.0185805 0.0110409 -0.0293518 
-0.0251863 0.0120873 -0.0289499 -0.0235319 0.0118703 -0.0296103 -0.0216494 0.0116254 -0.0295827 
-0.0199634 0.0122572 -0.0293647 -0.028796 0.0126335 -0.0293247 -0.0262803 0.013392 -0.0295311 
-0.0230857 0.0135981 -0.0294475 -0.0291265 0.01437 -0.0290074 -0.0204923 0.0139073 -0.0298599 
-0.0282712 0.0160213 -0.029833 -0.0272696 0.0149219 -0.0288236 -0.0219785 0.0150075 -0.0293654 
-0.019052 0.0149493 -0.0301407 -0.017657 0.01579 -0.0292414 -0.0293757 0.0172153 -0.0287471 
-0.0264117 0.0163237 -0.0295343 -0.0244689 0.0161867 -0.0298895 -0.022162 0.0169924 -0.0297629 
-0.0205924 0.0161237 -0.029601 -0.0185539 0.0170574 -0.0301548 -0.0276906 0.0176237 -0.0292258 
-0.0237536 0.0178128 -0.0296424 -0.020635 0.0179172 -0.029561 -0.0284254 0.0191995 -0.0296904 
-0.0266654 0.0192025 -0.0292522 -0.0248808 0.0192116 -0.0296019 -0.0194024 0.0192005 -0.0299876 
-0.0175688 0.0192011 -0.0301433 -0.0273136 0.000901027 -0.0285436 -0.0254998 0.00090036 -0.0287501 
-0.0240164 0.000895381 -0.0277305 -0.0223669 0.000894926 -0.02878 -0.019581 0.000898725 -0.0288705 
-0.0177396 0.000896381 -0.0281773 -0.0301152 0.00224425 -0.0279689 -0.0283454 0.00235026 -0.02828 
-0.0261339 0.00251276 -0.0282262 -0.0228065 0.00238814 -0.0278917 -0.0209837 0.00201826 -0.0290093 
-0.0187997 0.002345 -0.0281484 -0.0200804 0.00351725 -0.0285956 -0.0178183 0.00387837 -0.0283625 
-0.0300559 0.0050666 -0.0280332 -0.0282582 0.00505286 -0.0280108 -0.0256247 0.00460032 -0.0282822 
-0.0230224 0.00414611 -0.0282551 -0.0259565 0.00633204 -0.0286439 -0.0243418 0.00619045 -0.0278748 
-0.0199588 0.00530342 -0.0285016 -0.0182748 0.00617185 -0.0281693 -0.0274476 0.00663215 -0.0276901 
-0.0230506 0.00743513 -0.0279235 -0.0210493 0.00670584 -0.0287582 -0.0302717 0.00766394 -0.0277998 
-0.0263856 0.00827517 -0.0281844 -0.0246863 0.0078219 -0.0285584 -0.020166 0.00821057 -0.0283252 
-0.0302089 0.00953333 -0.0278682 -0.0283552 0.00975953 -0.0278889 -0.0234979 0.00916964 -0.0279701 
-0.0189345 0.00951052 -0.028495 -0.0265557 0.0100593 -0.0282398 -0.0247181 0.0103692 -0.0287387 
-0.0213164 0.0102932 -0.028131 -0.0306104 0.0115276 -0.0274336 -0.0288693 0.0122453 -0.0275695 
-0.0272131 0.0117547 -0.0285877 -0.0220873 0.0118926 -0.0278627 -0.0184224 0.0124482 -0.0282534 
-0.0303397 0.0132791 -0.0277265 -0.0273256 0.0133983 -0.0278794 -0.023745 0.0127035 -0.0280372 
-0.0217219 0.0136025 -0.0282761 -0.0247496 0.0142453 -0.0287975 -0.0179533 0.0140533 -0.0288996 
-0.0302678 0.0150739 -0.0278098 -0.0286238 0.0157674 -0.0279953 -0.0234942 0.0155067 -0.0285397 
-0.0204491 0.0148906 -0.0283028 -0.0272313 0.0168337 -0.0276236 -0.025181 0.0161086 -0.0282458 
[...]
POINT_DATA 10000
FIELD FieldData 7
id 1 10000 int
1729 7538 4222 790 4027 4791 6510 415 3502 
1077 3272 99 1045 2501 1606 133 1119 965 
3491 1066 2818 2855 2856 589 2417 8475 842 
9252 950 3770 3291 3972 2991 2032 4156 4241 
1913 4187 1659 8999 2872 4529 812 3715 1805 
8511 2769 3440 3412 8225 4568 5422 2859 1823 
613 255 4864 1316 1791 679 2671 6320 843 
637 3004 847 8988 5697 6461 4130 4756 4185 
5118 9314 1013 3988 1889 4452 3734 7048 4407 
8392 1425 7988 2766 5004 6556 1975 5656 2119 
9188 4319 8058 3496 944 4883 453 7240 6057 
683 4765 1375 8704 3240 8996 9235 3474 410 
993 4566 6994 2516 2181 941 5735 9905 3191 
3174 4559 926 3716 1778 2985 6875 2935 1507 
776 142 7191 2052 7046 8136 3903 2034 2014 
9093 1284 145 3037 953 5126 787 1790 8858 
8738 9879 531 7729 3358 8462 7474 9437 2679 
4444 7463 9892 1072 6133 564 4941 536 6298 
8327 1662 1168 9039 4381 4311 2160 2282 3392 
5023 3593 2606 1058 7779 6915 2036 6863 3418 
8544 3979 4350 2947 6352 9026 7148 6624 4794 
5049 6633 3247 373 892 5828 4860 5077 1896 
2028 9180 5002 1185 8659 9839 1731 3920 1400 
1342 6710 994 2496 2315 3270 657 4646 8743 
9781 343 2554 119 8091 1171 914 7486 3512 
2284 4144 4334 314 3565 9813 706 498 1883 
9678 8419 2158 4671 2535 2611 826 7998 1885 
3664 6148 1756 6177 5088 9408 3090 3311 2319 
5781 7103 6076 7069 3259 1022 8940 9737 5262 
3068 6777 7257 4160 392 1389 3890 5441 7871 
5250 9541 948 2532 1224 6109 715 2500 7836 
3400 3162 6972 897 1992 5452 5320 2465 2810 
602 7312 6196 9291 980 2895 10 4274 9887 
2147 6119 4038 7345 2062 793 5391 6423 4575 
5824 8283 2519 131 6678 5463 6270 1667 4359 
6883 6246 523 6619 3403 4299 9286 797 2930 
8361 2669 7858 7975 6063 4484 4275 3373 8979 
9167 1596 8560 7378 5415 9876 8785 4580 855 
1792 6789 4000 900 7860 1834 6158 9489 6467 
9713 5810 92 4488 7468 4884 6997 4738 7168 
9808 3044 507 3476 3451 6389 4734 2692 9760 
6801 5024 8071 967 6960 6322 6800 1023 3720 
5306 544 9388 78 8263 901 3343 1868 4809 
2731 3849 2932 3841 9843 3829 1020 9463 9699 
8302 9660 1884 1151 4552 323 9867 6211 9184 
5588 6348 3846 2913 6027 5294 1349 550 8132 
6707 7606 2636 8331 2306 8948 8146 5851 9636 
1469 2676 9929 2688 3168 3137 6623 9102 7802 
5599 6387 2180 409 9186 4313 1788 9073 5029 
7123 4549 6615 3608 9422 9755 5007 8890 7407 
7317 8476 6339 3141 9302 28 3924 7174 6611 
3879 2103 7772 8019 4695 219 558 147 5331 
6291 1804 4142 1743 267 4483 5254 2972 8730 
2880 3234 1409 2914 3569 5451 2925 1193 6127 
8691 7982 339 7952 8044 9386 9674 4678 9152 
6340 6742 7340 5663 902 4679 8314 8466 5360 
3893 3764 5277 5643 7243 7978 8172 2151 3856 
8698 4533 8949 2693 8953 9075 6910 9988 7789 
1416 8689 8118 4374 1939 3571 3287 4039 6014 
3488 8647 5625 4611 5715 7088 6859 2522 1403 
6986 8968 2201 6515 9793 462 2401 8066 9740 
2633 1947 3316 919 7840 4888 5740 8666 938 
3268 2300 2905 7993 568 9771 4603 2094 7555 
5813 1842 5019 8143 4910 3773 6964 5237 1544 
3888 9779 5690 1317 7043 3626 5818 9025 9398 
2345 1380 5831 5755 7137 4971 7461 644 5185 
289 4504 1378 7820 9640 7872 3630 45 3073 
2587 8977 1239 4470 6282 6704 4614 2742 5760 
2354 3721 5689 6763 6241 9512 7809 2539 4555 
7018 5937 8814 1676 2612 2654 6867 9893 3556 
9461 3724 581 7875 8208 8052 4345 2274 1629 
6621 5758 9717 8344 6924 4496 2208 1669 9569 
246 5248 4950 4839 9668 7519 8035 3310 1856 
3275 968 9611 8010 5576 3319 5260 3763 3616 
3611 2154 9294 9108 391 8054 9861 5947 2806 
5991 1121 5311 9076 6156 7570 3254 8847 728 
2760 5266 1893 2249 2072 7810 9305 6251 6612 
1722 3559 7007 8030 7868 9015 1894 3758 153 
8925 3181 8325 2259 7496 7256 506 4166 3143 
2303 5600 3970 6909 3169 405 2609 5593 9953 
5668 6341 2290 5056 8789 3250 3696 621 1197 
9350 6045 9996 895 8339 1203 2339 9301 8954 
3148 4106 3266 6982 5491 7176 305 4821 2248 
7364 6218 5921 8432 1815 785 4998 9930 3946 
1621 6565 9122 5449 5130 1871 9287 249 7882 
1129 6297 519 2295 4978 6961 5074 1218 1001 
9338 8549 2627 3634 3434 144 4188 6858 6830 
1668 1906 1429 7211 5438 5998 7238 1211 5751 
2420 5312 1952 8480 9587 7955 169 73 8411 
7299 1471 5564 6304 5062 5669 6516 1564 1005 
1691 2598 4246 1271 3969 6307 5469 6327 8291 
7847 2540 263 8033 2086 1303 3545 5198 6521 
7251 1900 4300 1972 976 8768 8734 4429 1010 
5151 5733 5587 2198 809 5540 4101 9347 9665 
9900 6488 4465 2648 7145 9306 8436 4415 6168 
1849 8051 9360 10000 2063 8144 109 1261 4949 
8630 718 2857 2634 6444 6932 1751 253 5071 
8398 9441 5031 3333 5887 3546 2943 4264 4019 
8501 6006 1289 3485 3961 7422 6795 7685 3947 
5261 3187 7350 7121 5985 9269 5403 7841 7196 
4153 3424 7803 9159 9428 8944 760 6415 1115 
8275 6215 6940 1530 4289 7348 3913 3558 227 
2231 9994 5727 8312 1617 5356 1833 8843 6083 
4464 3668 3065 4509 8418 9531 5015 4361 2999 
9979 8220 6810 2956 3487 1031 4665 9526 6653 
9918 8714 957 8422 9495 3067 4094 3220 3824 
3383 402 5459 8477 2211 7706 2976 6452 4183 
8602 1265 2839 3267 1075 6325 3614 6774 3527 
845 1794 1538 6942 6895 6192 6824 3468 2277 
328 5232 8396 9280 8117 8937 2148 3312 2916 
8611 6052 2107 2418 7913 5531 6583 8820 8413 
229 2244 3072 7079 4776 6272 8791 3263 8991 
1136 2561 1846 8154 1648 4269 4279 3811 1491 
6569 6308 8891 8682 3695 4125 5844 4434 5445 
5805 9417 1822 7027 5059 6657 5078 2168 4437 
7725 8840 2090 443 39 6171 3397 2131 1744 
2534 5609 1986 3980 1044 6407 9635 3971 179 
1057 7155 1927 5674 8715 4293 7692 7301 6832 
4067 1824 9341 5174 7033 8600 7797 2446 3158 
399 9153 8156 4933 96 4202 5914 4085 7424 
3779 8267 7419 5641 4321 4074 6401 3059 217 
9784 1750 9045 5759 3960 4899 6935 4060 3217 
2199 5113 940 3740 7041 7489 4306 9031 9535 
304 5534 9486 2628 1528 6805 1021 3898 4466 
916 5958 5014 434 2788 4751 5484 7374 6971 
6600 4468 259 4363 1213 6535 9357 7745 4894 
988 7165 9999 7711 2425 768 8752 9926 5594 
6285 1455 4601 981 5515 6904 1432 857 18 
6735 6965 3703 9796 2427 6538 1514 54 5373 
648 1354 1475 6185 7333 5239 4779 1522 764 
3672 8102 5518 1942 2487 420 4813 2033 4869 
9470 8304 6840 5042 4886 3551 4808 9394 725 
2405 4698 6267 5039 5700 9068 6219 6527 8733 
1114 7506 9670 298 9744 4302 3357 3125 1773 
1963 7916 9706 4386 4330 427 7106 2102 7744 
5009 6598 390 664 1286 3430 6080 4651 4986 
5105 9992 2563 7080 4212 5694 7401 2741 3405 
1123 2001 7410 6920 35 3256 2475 1487 4644 
5648 9260 5898 7823 9354 5487 3989 1741 834 
796 4480 806 2116 4277 3986 3281 3033 384 
8572 4520 7966 5554 9950 4562 2336 2608 8315 
4842 2301 1859 7311 140 4017 6845 9942 7100 
2117 271 1188 286 1749 7977 8111 5607 2212 
7154 2725 7567 8885 3589 5282 5005 2337 9101 
3710 8024 8943 4267 2749 6199 939 5016 9327 
6269 8652 8276 9609 4471 2262 2783 1705 4585 
9230 9695 5761 478 1686 7442 4473 7036 5138 
5338 5287 1806 4295 1050 6008 9849 2381 2795 
4134 6111 2121 9868 1630 9560 4800 1489 9456 
1529 8460 9019 2664 2829 7754 188 8727 8321 
5222 8861 5874 365 4028 4741 1518 1274 734 
4201 9063 4136 3928 1166 2150 5410 6478 7611 
7964 3156 3076 347 6640 6713 8893 9050 486 
747 159 7078 7794 6180 8888 8751 5432 8834 
6715 8956 7509 1663 4441 4179 3236 6081 8767 
9033 3315 5910 3977 6916 4755 1412 9284 5061 
6294 5557 3285 3783 3578 6491 9226 4960 2385 
3454 1666 3572 9503 4194 5584 2588 4895 7347 
2800 4322 5595 4956 6186 230 4904 1194 5582 
7517 6149 8855 2127 171 4385 9053 7066 6084 
9344 6609 5881 693 2714 7674 7019 9928 4913 
4215 194 7303 5511 5683 532 386 2384 766 
2836 3498 2919 5305 3372 1817 1539 1078 8388 
4516 2030 4031 518 7163 2463 3022 2286 209 
5944 8702 1353 1157 2197 4658 8961 8746 2993 
1486 4467 7253 3362 5952 5772 5135 7001 969 
2110 4708 1144 204 7548 8557 4724 6331 3877 
5182 2838 4766 8148 5860 4822 3036 8232 7245 
5207 8519 1632 7991 2992 2373 5431 4735 3492 
7104 3631 8124 3690 7329 9004 9412 1205 4626 
1771 8264 9351 7026 5622 281 3526 2229 1032 
1785 3869 3596 6384 7159 4784 708 736 9735 
5095 3203 4418 2607 935 312 4252 7671 6818 
1463 4093 16 41 5714 1924 2273 4631 8542 
1523 5650 1178 631 1436 3385 1305 5220 7863 
8736 5806 228 2953 3910 1800 1111 6981 1728 
617 4204 6329 8826 6848 7213 1250 2491 3159 
4920 8882 9227 9308 8280 555 4316 6476 2890 
452 5436 8381 97 4435 8210 514 4650 3211 
2236 753 4925 9331 8760 187 3937 658 6770 
8628 4785 4288 3296 4258 2893 5721 4541 5093 
6089 1525 8530 1916 4263 2243 5959 8918 9009 
2941 3579 762 9396 6074 8604 8088 3555 2374 
692 8153 5820 8191 7559 1336 1715 1345 6550 
6677 3486 2523 8471 3150 5330 7768 5343 5154 
454 3175 364 1127 884 7992 8896 4823 1364 
7833 27 1452 5676 3603 7313 6366 829 626 
2581 1358 7192 5632 7545 2570 1779 5112 7296 
5949 1737 8527 5630 3815 2707 6160 6957 8253 
8056 278 2876 7400 6892 5660 836 9303 2460 
720 1242 7900 3129 3711 7604 8008 8554 5175 
4325 3157 1073 7363 9424 2204 5101 5981 17 
2332 151 638 4777 8676 2219 5514 583 4820 
7918 3781 8163 5295 3142 3128 8658 5448 2623 
7198 9499 978 3366 5278 910 5962 6487 8753 
4171 4953 8851 2613 3876 47 5657 4597 4881 
8300 4512 408 6330 2109 8874 614 3334 4489 
1459 275 9175 5934 9961 3290 5400 5231 6208 
7227 8109 3518 2382 8705 8050 8878 3911 2394 
3803 3193 64 5992 8098 3119 91 5801 906 
3261 4973 5902 556 669 2321 4876 9418 5082 
5698 1999 3082 3419 8911 4287 6326 4638 2927 
2670 5099 2778 2566 2245 986 5041 2010 3880 
6532 5687 8569 5919 5242 8365 254 1989 4454 
3242 6494 5178 123 3828 2390 7564 7582 3622 
7640 7558 5907 1290 37 143 6733 3789 4020 
1068 4377 2558 7679 8487 3005 4132 4155 4205 
5202 6458 5744 8479 9974 6533 2752 163 6844 
2730 416 6227 593 9840 880 3875 154 245 
7537 9669 3225 164 4095 3363 2238 6881 643 
4485 1652 9349 5895 7981 7000 8097 2740 3012 
3386 7 540 4561 2542 2114 3298 752 3497 
6933 1344 804 6983 929 5490 5172 7936 4076 
9387 2963 3342 2723 8455 9030 5494 3207 2808 
3438 6343 5336 8900 1169 134 2360 2379 1237 
4479 7247 1752 59 1251 3379 3749 4697 1784 
2079 8546 6354 7670 8641 8540 4034 102 2224 
2807 3505 2908 3482 7923 6772 6948 7065 7122 
2851 7418 8345 1480 703 496 292 7775 7813 
616 2462 149 763 3499 9413 9429 2250 5349 
4827 1202 5961 5153 3135 4773 223 8645 6178 
4021 549 6614 4037 1739 7826 8971 7623 8238 
7806 1314 1533 4069 4982 5375 7408 778 6531 
4609 124 3396 2637 5746 1915 8135 3663 4905 
2145 2260 5771 7666 7073 8492 1182 4346 6887 
575 5973 5340 7274 9467 95 759 7987 2209 
3729 1453 5478 7244 4131 369 1173 8930 8563 
6015 6138 2549 4233 9715 5867 7751 5166 7056 
1953 1803 6951 495 3106 7778 5612 5150 2344 
6701 2019 2736 4511 1201 6194 7565 7521 6787 
534 3617 1414 3806 6996 8356 9423 4137 4870 
1402 8654 7890 1214 6041 674 5598 2667 8113 
8533 7624 5757 2104 7209 1244 9268 9860 5677 
5033 8323 1225 1554 2883 2071 295 8242 7254 
3660 4217 3494 2842 8638 6302 1466 2960 4663 
4151 1755 3576 6375 2630 5777 8838 4816 4383 
4224 1376 3714 4577 5738 3683 2675 6860 815 
6374 2017 998 5752 9048 8349 5546 3127 3361 
1526 9823 2691 1831 3575 5701 6223 7190 7861 
2139 2697 9250 9507 1508 3885 8950 2957 4532 
4711 3426 6113 8425 7864 1589 4619 1707 3747 
8121 4510 1661 2428 3216 7658 6073 7866 7618 
8190 8142 1761 7453 2331 9168 6630 52 2353 
3442 3952 7004 6188 7513 1765 6153 6851 6773 
6176 2285 3990 779 4173 7002 9496 9289 697 
1131 6128 4349 2307 7200 6336 7402 4847 8332 
4128 1912 1312 5918 6243 7381 2170 3232 235 
9434 8200 4364 3347 4395 2906 5938 1 5651 
4063 5269 291 3982 334 4460 8994 6514 6323 
1337 4391 4184 2302 1175 5466 9149 6641 3638 
4494 2967 8894 7067 9440 7096 3929 3308 1577 
1511 1736 3078 4787 6404 8766 8683 933 7020 
8438 4969 6842 4338 3153 3871 6254 5170 5003 
117 1838 1137 765 4545 4002 9117 6815 8502 
9014 4519 2868 2326 5972 8585 8039 7039 7321 
1647 7944 3371 1970 974 1548 7630 7649 7452 
467 9300 9513 9323 9017 2590 1546 2576 2106 
4918 141 6145 7031 6303 6605 3837 3756 6632 
5446 6090 6124 8250 2582 1065 5685 8520 9315 
2113 2939 3443 3328 6540 1161 354 585 730 
8793 9129 6276 6038 5394 2451 3265 3401 5989 
2178 137 652 3795 645 2702 459 8293 8290 
6360 3902 4379 2162 2698 9471 239 5168 447 
4687 5292 5739 3060 6468 3759 1363 2085 5381 
4121 6314 36 4409 2753 2610 3327 5233 8695 
3823 445 6567 3677 2169 3130 3301 5979 6726 
5750 3010 2414 242 8580 8618 3697 4635 905 
5142 3514 8057 3801 2632 5703 8378 1532 4092 
6993 3402 3606 659 5489 6029 8978 5513 2111 
5121 4621 7237 4975 4630 2047 7705 236 1565 
7879 9484 4108 4686 1706 9361 8406 4040 947 
7368 9482 3889 7105 1117 6576 3618 4341 4879 
3423 7532 5026 8516 8561 8394 6480 9404 87 
7135 2355 2601 524 450 2803 2012 6469 1827 
6262 8485 5216 479 8859 9845 9295 5927 9304 
2649 9519 6902 9081 1604 6927 6582 3532 4801 
2421 3152 9450 7693 168 6357 3144 737 9190 
309 1383 7327 5542 8025 8449 592 5784 1932 
2618 803 3470 6978 7258 6555 5550 3930 2661 
3863 7610 5079 5974 8182 1968 1456 4446 5435 
2173 7767 2486 4557 6464 6855 5879 9114 5602 
1396 280 9330 8427 9086 8409 8114 4476 13 
5342 8181 3706 3500 1940 596 6277 7845 5871 
3861 3860 8194 4865 9240 8335 9208 7325 329 
8927 182 9615 2357 2615 8790 4706 5855 7907 
3045 5832 9501 9242 655 2118 1462 3453 6228 
7831 5458 8151 3369 777 5508 4127 5223 5092 
5568 7637 5453 9278 5280 7560 7409 4193 3244 
2524 4799 5236 6871 6785 7927 8226 2430 4831 
8175 5246 5661 7262 4203 4909 1881 732 3017 
2065 3380 3245 5317 8969 1993 4605 1980 6144 
5057 2641 5184 1437 86 7503 3280 7225 7662 
7480 6120 7526 4892 8230 4035 4843 4367 8807 
932 7715 9449 6107 8660 4425 475 4702 4548 
422 3231 7716 6356 8027 925 896 80 4811 
3953 1125 9105 6898 4729 5857 6087 2774 1408 
4109 6627 4135 7232 3304 6380 7780 6166 8336 
7397 9146 8119 9676 2461 2586 5160 573 4280 
4732 4946 5104 1904 5945 3166 2874 4189 8889 
9247 282 374 9682 8430 8167 9083 2858 7383 
3733 5044 7248 6202 5426 3427 2495 5917 150 
9072 9885 7960 4463 5929 94 7518 863 3673 
5115 2254 7112 1837 1934 2409 891 5732 590 
9324 6837 7102 3652 4335 6419 9518 4759 6321 
3355 5971 2098 5709 5904 5849 8089 9251 6345 
7355 1718 3095 9487 4248 3537 379 9807 7075 
6524 1720 2933 8816 6370 5778 5549 6338 7547 
8029 7353 4373 9374 3408 5562 6599 8613 5264 
7552 6791 2713 4089 6489 7528 8414 6190 8234 
1645 5001 4009 5977 8719 4688 4083 1649 3147 
5803 4713 7825 5407 6441 8173 3289 2635 162 
7277 4501 226 3063 9224 8721 9214 7441 5984 
5402 8169 270 769 4792 3345 5366 5482 7285 
4318 332 3472 8617 3388 1055 9139 2351 7202 
9485 6995 2814 4500 1390 772 4857 5658 2902 
42 3323 5571 7739 6966 594 6907 5891 8534 
4689 1407 2448 7557 4995 5575 1958 1903 5501 
6173 2789 2861 2060 1043 7738 6988 7181 6654 
8204 273 954 2177 6628 7596 7434 7157 8310 
327 3993 1639 3623 4804 9201 5876 5296 8082 
7222 1103 4660 3868 6154 6257 8112 7828 8239 
6355 6732 6311 1401 977 2149 2565 7660 5845 
9283 2961 1209 1130 3344 5930 6416 8821 7267 
6889 7654 3024 5321 6094 8598 2804 1309 4812 
3786 1841 2402 8619 5480 3878 268 2695 8868 
6471 4664 2619 3243 3273 817 2081 6782 4897 
8395 6553 449 1813 1301 3452 7068 6391 6561 
8831 1440 3018 105 4515 835 7475 8521 1300 
869 4049 2068 6592 9455 6934 7752 7799 7878 
4304 8529 8343 9363 4112 9011 4281 8382 2537 
1248 3299 348 4749 7695 8152 6539 3800 7456 
4343 6820 1874 1190 1120 2786 7851 5251 8241 
1323 6547 7832 7107 2755 8835 7588 6691 7941 
6486 7698 8464 4227 1642 7497 8601 2443 9403 
5920 5539 4721 3725 1069 6888 691 7970 2077 
675 4149 9438 894 5780 8317 4988 419 3399 
2445 3549 9126 6260 3905 4793 4629 3410 2955 
2526 9239 5671 7796 7856 3821 4332 7177 8920 
5951 6197 2631 4642 3390 2205 8340 6012 5389 
7678 302 71 4445 8605 157 4096 1590 4661 
2097 1177 3303 1478 1230 5416 5089 1079 1689 
5470 1616 1703 3772 7094 9293 106 4449 533 
2748 1960 6379 5307 1019 6032 7385 5815 827 
421 1236 3598 5297 1162 3205 4833 3568 6775 
2035 8440 4462 3461 2342 741 7113 5380 8123 
3754 6650 4174 1059 8095 8951 6135 7812 6300 
2157 1481 949 7953 283 474 8431 5424 4972 
9319 990 1640 1028 928 566 7207 8696 6551 
2921 4025 6095 5822 2310 7326 7973 284 609 
3822 4405 1347 6705 5706 7710 9469 1333 7696 
6115 4829 4256 5830 9176 1195 2257 7647 1064 
3246 3839 466 2203 5543 3600 861 2458 502 
9400 7204 7620 3235 4677 2699 6317 5503 701 
3300 2125 352 3516 1318 751 244 4419 4803 
2548 1415 7790 3658 5693 2452 8041 174 4819 
8989 3099 3394 1150 6812 1394 387 1189 811 
2393 527 650 8224 7507 6097 922 2915 6868 
4817 9131 9177 7699 6232 3790 3957 6687 5570 
5563 7273 6634 1988 4389 1551 871 3478 1322 
7980 5559 6712 2200 5795 8897 9488 2087 2903 
3857 7118 6203 3151 4525 4406 646 6560 4423 
5968 1869 341 7574 3042 3172 9215 3918 1183 
1738 2849 8916 4410 1223 1468 2232 4072 3179 
1365 722 3981 3040 349 973 2556 380 2762 
8575 3955 570 176 605 9062 3284 1098 4636 
1981 4030 1122 4057 8183 6405 3192 3391 4506 
3365 7675 748 4657 7384 1513 2389 2751 6963 
4113 4234 1814 3393 9034 1821 1071 4760 7652 
3633 7230 8229 4455 7807 8216 2884 6229 5365 
1015 4991 7572 388 791 2605 1879 6431 1206 
1490 6835 3994 3481 6673 2242 2481 8512 8863 
4524 9321 4340 2937 2011 455 5396 2642 2604 
1382 3965 1921 4716 3939 2164 26 2275 2662 
3853 2459 2083 2329 7749 2873 1505 4457 2922 
7601 7394 2152 7997 7261 432 2411 2380 3915 
4696 1759 2220 2703 2280 3767 1825 351 8157 
4852 3792 4891 215 3035 3475 4056 5672 1983 
7206 6096 1603 3976 2562 2666 4596 1243 3294 
3825 3189 264 3113 4907 4851 3904 4218 1231 
4368 6822 2592 1938 3252 1217 2096 2864 5136 
3580 8038 252 9504 1275 1569 5809 6447 6781 
7035 414 5433 2794 1973 2388 2696 8552 1139 
6720 6122 684 789 4649 885 5214 5841 5866 
1294 5506 1767 1664 8370 522 5970 1277 1701 
484 2503 8795 3433 3560 3437 490 451 1049 
3170 1561 4244 1434 4806 4764 5147 2832 8586 
4798 55 3032 3686 180 3493 4282 1374 1710 
5454 3132 513 2735 6245 2901 4560 2349 2124 
2367 3761 4084 4606 2322 2835 8939 316 4859 
1593 729 4004 1607 3536 2471 2684 1753 2312 
3649 1613 5799 306 3639 4645 3609 4656 2763 
3133 2640 4348 4855 4286 4684 370 3429 4 
7634 2721 3370 6009 9333 411 2187 2413 717 
3948 5156 4584 1848 4150 3702 1945 2568 3047 
3506 1619 5498 8901 6534 4579 3307 2888 4911 
654 1016 1426 1687 2761 553 3936 4022 3552 
671 5419 4086 3075 3069 1809 4016 2230 4745 
3194 610 1990 5779 3462 2216 4856 1081 3027 
4718 6332 4228 7599 1340 32 3070 3435 987 
698 2887 1602 4242 3479 7082 1269 1847 8313 
2971 322 2221 3519 499 1766 937 2978 1971 
101 4251 773 1145 2123 1101 4146 3592 1102 
2958 1982 4874 1624 624 1944 4082 4292 7605 
2450 4634 1734 2371 423 4029 401 4931 4648 
4414 3817 9 2218 3641 5075 4167 3582 1625 
1477 3587 8134 8981 2225 4225 3003 9162 5 
1228 3870 1272 4164 4180 1082 5245 214 2217 
4116 266 4564 8754 1460 1377 2140 1339 1472 
2514 1553 2138 955 3599 1948 4602 4235 930 
3983 9432 3550 2006 220 3984 665 1857 4709 
3543 4748 3950 3570 2974 23 1876 991 5341 
2479 4571 1776 1635 2687 1677 1398 8880 2889 
771 3554 2811 4099 257 3859 1933 952 5665 
4375 1680 1994 886 3816 3538 1070 2785 3163 
1360 74 1335 1959 7510 8904 4873 542 2009 
7411 3293 4499 2674 279 1014 2335 2292 3389 
1795 3079 1370 3055 1113 5560 1233 2089 5798 
4126 8170 3654 2476 1671 4588 5191 7889 4682 
1579 1006 5589 3313 3173 9135 1366 3050 1156 
130 3840 1096 2845 3865 211 4260 3218 3553 
9275 2100 4369 4514 3007 4421 9292 839 1890 
4114 3257 3838 3766 2594 1307 1623 2399 1929 
460 3199 2509 4250 661 9022 3239 4673 4270 
970 2193 1497 699 114 3002 1207 7289 4652 
3944 1793 8759 3471 1074 461 3533 690 1249 
2593 4795 2136 1716 4033 7731 9769 1774 3013 
476 4740 3847 1212 3530 3895 22 2444 4826 
3670 670 3653 2948 1134 108 1557 359 3212 
1181 761 3669 1576 3855 431 3271 3051 487 
4229 1038 381 4680 1267 3525 371 4482 1299 
1964 6658 2929 1704 3629 2668 3084 9841 1520 
3539 1985 2853 2359 1395 5504 4722 509 4508 
849 4081 1221 5767 9502 3501 483 2309 4262 
1259 4276 7199 2533 4490 745 394 1969 1061 
4625 3103 714 4919 4595 2018 321 100 5080 
63 959 2998 1678 5865 88 1087 1419 2996 
3914 7756 2233 4996 2617 3973 1106 4880 1531 
3612 161 608 1865 9589 1330 6498 2163 4315 
34 2710 3708 4008 1516 4458 1140 311 3632 
2689 562 1651 989 8145 816 4692 7188 1392 
2995 3647 2281 1996 2397 4036 4129 1997 3577 
2222 2044 4396 9451 6268 1192 2051 3671 7931 
2255 1552 3802 9778 139 4214 3705 7008 8494 
8806 1614 3223 3693 2334 1154 2574 1030 1107 