# vtk DataFile Version 4.2
Generated by LIGGGHTS
ASCII
DATASET POLYDATA
POINTS 10000 float
-0.00615388 0.000898392 -0.040643 -0.0043719 0.000898318 -0.0408688 -0.00257935 0.000896478 -0.0410209 
-0.00075122 0.000897873 -0.0410996 0.00231319 0.000895799 -0.0410387 -0.005375 0.00251615 -0.0407484 
-0.00359022 0.00251579 -0.0409472 -0.00167041 0.0024427 -0.0410691 0.00131889 0.00238694 -0.0410857 
-0.000157279 0.00340911 -0.041101 0.00263352 0.00360797 -0.0410186 -0.00523862 0.00452859 -0.04077 
-0.00247609 0.00404759 -0.0410282 -0.000933166 0.00502866 -0.0410928 0.00115898 0.00463518 -0.0410763 
-0.00558082 0.00630787 -0.0407287 -0.00368058 0.00540953 -0.040941 0.000554842 0.00632834 -0.0410994 
0.0028181 0.00541283 -0.0410053 -0.00407023 0.00726661 -0.0408994 -0.00234272 0.00665375 -0.0410328 
-0.00555589 0.00826488 -0.0407312 -0.000157741 0.00797848 -0.0411008 0.00163367 0.00781686 -0.041068 
-0.00522348 0.0100307 -0.0407699 -0.00347468 0.00908857 -0.0409606 -0.00169283 0.00890822 -0.0410675 
0.00112827 0.00956521 -0.0410889 0.00290842 0.00909134 -0.0409967 -0.00236039 0.0105756 -0.0410407 
-0.000524599 0.0102758 -0.0410963 -0.00543096 0.0118189 -0.0407437 0.00135473 0.011349 -0.0410794 
-0.00274249 0.0136031 -0.0410112 1.35749e-06 0.0125326 -0.0411004 -0.00450414 0.0139249 -0.0408602 
-0.00012341 0.0146266 -0.041103 0.00139243 0.0136643 -0.0410836 -0.0058232 0.0153168 -0.0406893 
-0.00414762 0.0159835 -0.0408938 -0.00245275 0.0153745 -0.0410348 0.00171996 0.015672 -0.0410733 
-0.00139314 0.0171253 -0.0410788 -0.00490373 0.0176379 -0.0408074 -0.003117 0.0176203 -0.0409876 
0.00201276 0.0174454 -0.0410551 -0.00576999 0.0192068 -0.0406984 -0.00398728 0.019196 -0.040907 
-0.00219668 0.0191829 -0.0410471 -0.000384496 0.0191568 -0.0410972 0.00162307 0.0192008 -0.0410733 
-0.0103235 0.000899579 -0.0397814 -0.00865268 0.00143767 -0.0401851 0.00364986 0.000899882 -0.0398381 
0.00517969 0.000915412 -0.0407783 0.00758443 0.000906413 -0.0403969 -0.0118708 0.00197279 -0.0393525 
-0.00714902 0.00246648 -0.0404787 6.06362e-06 0.00202305 -0.039921 0.00254142 0.00231693 -0.0397705 
0.00393631 0.00235468 -0.0409102 0.0064934 0.00232113 -0.0405859 0.00885797 0.00224309 -0.0401311 
-0.0113192 0.00367667 -0.0395121 -0.00947569 0.00302342 -0.039997 -0.00381236 0.00396484 -0.0398292 
-0.00118218 0.00379392 -0.0396752 0.0077441 0.00363535 -0.0403657 -0.00997077 0.00480453 -0.0398769 
-0.00798016 0.00404883 -0.0403163 0.00426512 0.00435319 -0.040883 0.00603209 0.00410758 -0.0406541 
-0.01203 0.00552855 -0.039302 -0.00723256 0.00567722 -0.040461 -0.00231941 0.00526162 -0.039718 
-0.000848678 0.00638973 -0.0399285 0.00531654 0.00588226 -0.0407615 0.00772297 0.00543456 -0.0403681 
-0.0104903 0.00650964 -0.0396711 -0.00878784 0.00679226 -0.0401624 -0.00714775 0.00747158 -0.0404749 
0.00238374 0.00673153 -0.0398452 0.00380627 0.00691134 -0.0409313 0.0068777 0.00701595 -0.0405217 
-0.011284 0.00825701 -0.0395216 -0.00911678 0.00855732 -0.0400779 -0.00298722 0.00768815 -0.0395298 
0.00490775 0.00866134 -0.0408109 0.00809107 0.00836703 -0.0402949 -0.0104222 0.00982486 -0.039759 
-0.00748565 0.00923568 -0.0404167 0.00745441 0.0100441 -0.0404184 -0.012704 0.0100544 -0.0390881 
-0.00882984 0.0107293 -0.0401469 -0.00370798 0.0105307 -0.0398687 0.0022033 0.0102815 -0.0398411 
0.00473838 0.0104493 -0.0408352 0.00916921 0.0104441 -0.0400478 -0.0114452 0.0112805 -0.0394749 
-0.00851979 0.012355 -0.0394539 -0.00719971 0.0117028 -0.0404691 -0.00373367 0.0122543 -0.040365 
-0.00169719 0.0121915 -0.040638 6.29684e-05 0.0113322 -0.0397635 0.00315157 0.0113195 -0.040978 
0.00460269 0.0119988 -0.0399391 0.00622328 0.0113528 -0.0403572 0.00795228 0.0118388 -0.0403252 
-0.0124504 0.012752 -0.0391774 -0.010265 0.0125974 -0.0398036 -0.00587146 0.0135881 -0.0397511 
0.00220336 0.0124992 -0.0399897 0.00360089 0.0130937 -0.0409474 0.00667195 0.0130915 -0.0405572 
-0.00909446 0.0139817 -0.0400803 -0.0073894 0.0144696 -0.0404345 -0.00127106 0.013812 -0.0399905 
0.00270616 0.014406 -0.0401124 0.00740403 0.0147553 -0.0404277 -0.0113296 0.0154558 -0.0395076 
-0.00944637 0.0158445 -0.0400077 -0.00455974 0.0150154 -0.0394412 -0.00102459 0.0157271 -0.0400066 
0.00394621 0.0154524 -0.0409091 0.00613634 0.0160507 -0.0406457 -0.00772825 0.0162317 -0.0403673 
-0.00581037 0.0167192 -0.0395583 -0.0028653 0.0164311 -0.0396452 0.000352797 0.0168065 -0.0407901 
0.00281515 0.0163779 -0.0398426 0.00400824 0.017254 -0.0409045 0.00775633 0.0167776 -0.0403729 
-0.011489 0.017457 -0.0394614 -0.00930612 0.0176337 -0.0400171 -0.00687418 0.0178032 -0.0405216 
-0.000643207 0.0180279 -0.0397177 0.006269 0.0178391 -0.0406285 -0.0119538 0.019195 -0.0393228 
-0.0102216 0.019201 -0.0398129 -0.00847013 0.0192043 -0.0402238 0.00311175 0.0186645 -0.0402254 
0.00471993 0.0191932 -0.0408292 0.00751034 0.0191955 -0.0404071 -0.0154801 0.000938055 -0.0380871 
-0.013782 0.00099991 -0.0387239 -0.0121639 0.000896998 -0.0379476 -0.00903437 0.000898851 -0.0385189 
-0.00723861 0.000889648 -0.0392197 -0.00513545 0.000896427 -0.0391623 -0.00334134 0.000897226 -0.0393974 
-0.00153218 0.000919426 -0.0394916 -3.71371e-05 0.000898201 -0.0384929 0.00148865 0.00089802 -0.039443 
0.00617167 0.000899447 -0.0392873 0.00852903 0.000894902 -0.0388683 0.0100124 0.000890624 -0.0398668 
0.0118564 0.000982951 -0.0393575 -0.0163236 0.00249069 -0.0377188 -0.0146599 0.00253438 -0.038405 
-0.0102669 0.00224472 -0.0385874 -0.00796235 0.00249045 -0.0388844 -0.00621584 0.00214767 -0.0384576 
-0.00418479 0.00238692 -0.0388461 -0.00253177 0.0026184 -0.0395026 -0.00105226 0.00238251 -0.0385198 
0.00536283 0.00270015 -0.039244 0.00715073 0.00236274 -0.0389109 0.0108597 0.00245111 -0.0396481 
0.0125725 0.00262629 -0.0391336 -0.0130007 0.00332249 -0.0389936 -0.00905695 0.00384122 -0.0384565 
-0.00547519 0.00355329 -0.0392842 0.00106075 0.00347414 -0.0396851 0.00337145 0.00388246 -0.0394044 
0.00961727 0.0038647 -0.0399601 -0.0157731 0.00421331 -0.0379559 -0.0141519 0.00464106 -0.0385902 
-0.0107379 0.00484179 -0.0382554 -0.00711178 0.00406344 -0.0387295 -0.00260165 0.00405128 -0.0384189 
0.00194344 0.00502482 -0.0394866 0.00502939 0.00444842 -0.0390005 0.00682568 0.00450183 -0.0390853 
0.0113775 0.00415851 -0.0394943 -0.014993 0.00631891 -0.038267 -0.00841961 0.00535449 -0.039165 
-0.0059236 0.00528758 -0.0392931 -0.00395426 0.00582856 -0.0392247 0.000492211 0.00578015 -0.038746 
0.00405106 0.00587137 -0.0394928 0.00635914 0.00620757 -0.0387569 0.0105014 0.0057055 -0.0397381 
0.0127379 0.00524784 -0.0390773 -0.0133395 0.00668821 -0.0388748 -0.0115702 0.0069564 -0.0383126 
-0.00849767 0.00699799 -0.0384095 -0.00666517 0.00727389 -0.0384918 -0.00501896 0.00727005 -0.0393284 
-0.00197681 0.00657595 -0.0385467 0.000639921 0.00734419 -0.0396214 0.00531104 0.00731982 -0.0396928 
0.00789379 0.0070932 -0.039041 0.0093904 0.00708433 -0.0400193 0.0111037 0.00742215 -0.039572 
-0.0159922 0.00806328 -0.0378606 -0.014248 0.00821056 -0.0385631 -0.0125054 0.00848511 -0.0382222 
-0.009877 0.00859483 -0.0384522 -0.0078242 0.00861539 -0.038769 -0.0011992 0.00810983 -0.0395327 
0.0019682 0.0085395 -0.0394565 0.00369999 0.008111 -0.0396052 0.00657361 0.008295 -0.0388737 
0.00989343 0.00880001 -0.0398967 -0.0144021 0.0100018 -0.038496 -0.00608155 0.00884765 -0.039125 
-0.00431411 0.00891208 -0.0393935 -0.00262385 0.00937651 -0.0390368 0.000280888 0.00913368 -0.0395674 
0.00388867 0.0098796 -0.0393687 0.00584664 0.0097658 -0.0396012 0.011259 0.00990399 -0.0395347 
-0.0160425 0.0103328 -0.037844 -0.0111408 0.0101147 -0.0381399 -0.00871997 0.0101334 -0.0384628 
-0.00708444 0.0104688 -0.0391734 -0.00532827 0.0108501 -0.0391777 -0.00164145 0.0108704 -0.0394183 
0.000994337 0.0104251 -0.0385209 0.00706844 0.0108489 -0.0388545 -0.0155941 0.0121643 -0.0380264 
-0.0139265 0.0118428 -0.0386743 -0.0123132 0.0114812 -0.0379111 -0.00996105 0.0114349 -0.0384659 
-0.00650316 0.0121628 -0.0388681 -0.00385546 0.0116261 -0.0384572 0.00110455 0.0122196 -0.0385929 
0.003185 0.0114647 -0.0389035 0.00625758 0.012452 -0.0389265 0.00973006 0.0121549 -0.039939 
-0.0143407 0.0136172 -0.0385207 -0.0109614 0.0134718 -0.0384057 -0.00918683 0.0134081 -0.038171 
-0.00426362 0.0132954 -0.0390027 -0.0025324 0.0128137 -0.0391532 -0.000791272 0.0125813 -0.0387703 
0.000465107 0.0136003 -0.0395539 0.00358865 0.0132152 -0.0390948 0.00804099 0.0133984 -0.0394338 
0.0114292 0.0129581 -0.0394875 -0.0159835 0.0139385 -0.0378646 -0.0074707 0.0136715 -0.0388314 
-0.00282757 0.0145526 -0.0394868 0.00521143 0.013691 -0.0397027 0.0065669 0.0145719 -0.0388463 
0.0098645 0.0139456 -0.0399013 -0.0149626 0.0153682 -0.0382806 -0.0131174 0.0148625 -0.0389525 
-0.00991075 0.0150118 -0.0384931 -0.0082377 0.0159005 -0.0386737 -0.00642936 0.0151248 -0.0390109 
0.00140913 0.0153791 -0.0393367 0.00340121 0.0151738 -0.0386481 0.00500696 0.0154988 -0.0393758 
0.00806524 0.0155845 -0.0389097 0.00949397 0.0157003 -0.0399917 0.0116549 0.0149774 -0.039418 
-0.0150867 0.017239 -0.0382372 -0.0116675 0.016366 -0.0379922 -0.0100434 0.0168004 -0.0386115 
-0.00432626 0.0165556 -0.038556 0.000144711 0.0165998 -0.0389631 0.00666692 0.0171745 -0.0390111 
0.0111847 0.0167359 -0.0395546 -0.0132067 0.0176247 -0.0389313 -0.0105309 0.0184796 -0.0382012 
-0.00782059 0.0176567 -0.0390038 -0.00609843 0.0179567 -0.0382849 -0.00363057 0.0180214 -0.0393202 
-0.0018082 0.0173578 -0.0385221 0.00157891 0.0176236 -0.0393244 0.00330906 0.0176914 -0.0387294 
0.00496436 0.0175955 -0.0394204 0.00858863 0.018073 -0.0394554 -0.0151689 0.0190529 -0.0382017 
-0.0133816 0.0192075 -0.0381167 -0.00891045 0.0192007 -0.0384852 -0.00691593 0.0191759 -0.0393254 
-0.00496328 0.0192011 -0.0390961 -0.00227965 0.019202 -0.0392571 0.000702028 0.0192056 -0.0395355 
0.00230089 0.0192001 -0.0387117 0.00424531 0.019206 -0.0389403 0.00594609 0.0192046 -0.0395143 
0.00990438 0.0192061 -0.0398948 0.0121388 0.019202 -0.039269 -0.0187615 0.000899283 -0.0365689 
-0.0171435 0.000910048 -0.037355 -0.0139687 0.000894257 -0.0369419 -0.0104492 0.000896957 -0.0374165 
[...]
POINT_DATA 10000
FIELD FieldData 7
id 1 10000 int
6833 9084 2080 5590 9430 6543 8342 3577 3133 
9860 3525 9616 9580 6204 1909 9764 600 6648 
1884 3420 5764 8672 3954 6449 5124 439 6018 
6174 9825 2213 9575 1253 7897 7808 8311 361 
3653 6679 2789 3471 6872 3123 3851 2770 9667 
5809 2969 9755 5620 6602 3439 920 8810 8806 
4767 5333 4951 9064 6731 9604 3868 885 4009 
3431 4270 3874 9232 9335 4119 6696 9179 9968 
3991 5782 5434 8779 5346 4989 876 4207 7873 
2541 9178 9741 5421 5791 7532 9444 9439 7655 
2680 2802 9282 3490 5613 4628 1892 8578 7175 
8385 4440 9614 6727 5191 3011 7852 3782 1819 
3117 4399 7098 2356 4012 6385 6187 9626 7460 
4343 8372 7498 2468 1499 5018 4210 7752 8444 
9591 5973 7983 1645 8877 2861 9174 8296 2169 
3283 3747 1572 1315 8830 1968 1557 9782 7588 
5354 6747 3101 4602 871 7839 14 3927 5005 
5474 7689 7974 2212 7334 3540 6337 1818 4421 
9778 9610 5196 4256 141 357 9871 2869 435 
8772 4232 9004 5230 9138 8686 5102 6381 9916 
801 991 7282 1368 3922 85 5614 4718 4999 
6955 1395 290 7058 1165 4731 548 6207 9746 
6826 9914 9402 2403 7781 1559 9570 9299 6746 
9246 5167 9841 5901 9769 6770 9578 8106 5730 
7493 6577 9903 3505 9545 838 2171 5398 1700 
5072 6172 8758 732 9502 9427 6802 9116 4668 
7551 3938 8293 4152 9622 62 9142 6592 2507 
5408 3743 8583 2132 816 4368 6498 9277 9387 
8257 7904 8831 4475 5046 9738 2308 747 2365 
9256 4648 7435 7446 1741 870 5577 4389 444 
8759 1043 9811 7415 8219 8846 9544 6296 5906 
6229 4930 915 9149 5074 7709 5979 6163 5786 
7822 6978 7720 8310 5380 4240 7133 5701 9411 
3957 7783 6346 9920 8354 4688 5159 2002 9321 
791 8304 4481 3584 5355 9895 2567 4856 7749 
2458 9239 7554 620 8685 3080 4752 2917 5489 
4514 7065 1035 5152 9894 4037 7595 6459 6836 
1841 8970 1036 8742 9285 5243 7587 5283 1024 
5301 9560 3012 9536 3214 8353 1126 4844 7268 
1660 5322 5636 9689 3194 3585 9630 5462 9549 
6618 8357 5741 6142 5799 8601 1401 8099 3842 
6866 704 8005 176 8710 190 3847 8496 6998 
8798 9947 9659 2547 8636 1124 4281 3704 6520 
3266 9028 8508 8577 5351 5909 9688 2719 5229 
4054 8532 6848 8965 9376 2824 8223 8682 6274 
5640 1651 5037 2549 9976 9472 7859 4186 5119 
8064 6316 1501 1640 5610 1680 4053 7730 9830 
3887 8070 664 670 9650 7887 2957 9831 7795 
4 3941 9564 6077 8573 2772 3698 3580 7335 
4226 1508 4117 4499 222 1411 6511 7695 2682 
6311 8170 441 6831 7188 6726 3677 9658 4996 
3551 1361 6175 1228 7497 1985 9045 3718 4321 
283 5963 3563 6063 5759 3700 9297 974 850 
1156 4023 8045 9745 8781 659 6029 5780 3357 
5638 9857 1551 9326 4490 3889 4508 2913 2955 
3288 663 1718 226 4396 853 4069 42 9147 
7401 3857 4114 7942 3042 8857 7889 3501 9621 
302 2796 5016 3902 2272 7615 710 1252 6816 
6411 2244 4127 8692 3961 6819 4120 7777 7732 
9863 2750 4016 4305 300 6489 2366 8242 9849 
9693 7837 5348 5965 5021 9945 1587 6869 3256 
2205 5766 6186 9957 5392 9964 7119 8110 3107 
3904 7299 5345 4072 1249 1091 7843 7602 1558 
7495 5527 419 2473 1292 6283 630 4121 6060 
4888 5065 5861 5284 7967 7883 9521 4073 9794 
6048 7937 9584 3914 9134 4477 1484 9579 8432 
5310 2036 5798 4807 4791 2875 4234 6200 6700 
8343 9882 2521 5478 7450 9844 7652 8829 1506 
846 6683 161 4578 9360 3507 9420 9943 6212 
5025 7367 5509 1878 8229 5953 8695 8542 1312 
3003 9409 5189 4408 7659 3574 5739 836 8016 
524 1138 8833 6152 4218 2437 6344 1568 9962 
9530 5907 371 8613 5751 133 8024 8697 8641 
6246 3714 8435 7216 1440 2338 5740 6431 7338 
5984 4865 288 3693 2015 2207 3676 4780 1840 
9460 9854 9582 7421 1089 9893 8370 2334 2112 
5312 6943 9965 6146 9 849 4355 474 779 
9734 9985 5133 1619 9534 8650 8787 9797 5870 
1322 1648 3998 4215 9600 4171 4485 7186 3089 
6382 9202 5214 3554 2520 3188 7347 4686 1303 
6422 2179 3996 8536 9826 7324 1049 9834 8424 
1509 5597 1028 4070 7737 9906 8189 5383 1154 
1727 564 4870 5657 1221 4302 1021 5433 8991 
9130 3329 9759 9012 2763 2017 1293 3063 2096 
2734 2295 8794 1637 5419 6256 2528 9728 3248 
7758 2251 6505 7361 9673 1755 200 6067 349 
7750 1413 9999 929 6043 5298 1895 911 9873 
7815 4219 1966 940 2492 4379 565 3632 5127 
5148 3754 3367 3074 9991 6756 8817 2509 2721 
3306 6504 3091 687 6781 6088 4146 6814 18 
629 5800 9760 9715 4720 1473 6116 8612 2949 
1586 4436 421 1257 6713 6330 6590 2089 1679 
532 3694 3043 2847 1650 3930 5034 6329 7328 
2416 4933 5166 214 9303 1326 5459 8746 2510 
3975 3885 6587 1973 3865 1709 3047 484 647 
1601 7509 4022 6261 412 1310 8066 6354 3646 
1438 1978 455 6691 6619 6192 3977 9783 4200 
8729 5396 6996 191 7640 4349 8676 8486 7729 
4915 8225 8835 9394 4179 2937 4423 7865 6100 
9772 9313 6161 522 5078 8956 880 8480 1982 
8575 5570 5274 1630 3312 4960 7759 7980 5097 
2922 9272 5604 3481 7180 2275 9198 4257 3933 
6392 6239 6302 2199 3259 3050 8791 5770 7838 
5255 2349 7310 2762 4543 3880 2186 1347 1147 
331 3539 9646 3129 1553 4745 8101 1610 1605 
3176 9136 891 6074 2503 1371 1652 673 3822 
3692 212 8433 7128 316 4406 427 4695 1 
6079 3 1555 7969 3479 4795 7374 7094 7455 
9853 514 7467 3163 7943 817 5487 9731 9550 
8266 8258 2187 8622 6750 1202 6657 5019 2394 
2650 4894 2960 3213 5850 9229 3511 9223 7673 
1369 3529 4088 6871 5343 4580 3673 3189 5916 
2491 5473 6536 4252 2634 9810 887 6452 2723 
3550 1756 1716 7318 4111 9680 8388 208 9956 
648 3159 8576 9252 9341 7503 3871 7683 5432 
8236 244 387 2839 4836 9067 6904 1173 6284 
1081 9716 4634 105 2393 5571 8630 5490 2730 
2206 7355 4873 4030 1889 2488 4326 9153 6315 
4813 6232 1881 2430 7163 9188 2055 934 475 
8058 3487 6620 6555 3212 438 1976 685 1946 
5289 1338 6383 3468 7257 7748 5860 5254 5039 
9015 1502 2718 102 8190 5178 6973 3190 1579 
1467 9838 9374 3913 7632 6541 2110 6372 559 
2746 9463 8122 8557 6031 7365 2399 9606 7309 
9787 485 773 3405 599 4510 9938 2591 9485 
9722 7638 6521 711 5560 8411 814 3622 3740 
9695 2255 2713 9718 970 9432 2677 8657 2834 
2086 8481 7945 1373 7955 2678 1997 473 5866 
1200 7573 2104 5779 7303 1852 4691 9541 947 
2998 276 2921 7076 1528 8790 689 9445 6719 
9594 6118 9269 2636 5445 327 5648 768 6782 
4273 1990 7331 6995 4764 9412 1384 4466 223 
1299 3049 2880 7201 7606 8658 9496 7199 4250 
9074 8566 5122 1363 3980 8604 5146 7274 5451 
3625 4397 5116 5030 6013 2652 6660 1162 979 
450 9501 7514 3365 154 4880 6111 268 2198 
1409 6829 1076 772 2075 9815 4225 2444 6547 
2539 2097 9357 7145 354 6343 1604 5767 1330 
1603 7684 9733 1095 5140 6155 4851 8734 2687 
2524 2688 9796 3423 7671 1958 108 5774 7702 
9624 359 2125 9930 1135 7085 1836 6168 5374 
4728 4049 6970 6786 5427 9750 4982 6374 4284 
4035 1620 390 8477 4375 1821 3787 8871 2701 
2172 775 5532 4076 1899 9293 285 429 5728 
3386 8511 5391 4833 958 129 4588 1893 2033 
7307 5386 4704 7056 907 607 5041 1597 7383 
5910 781 9292 3371 2094 2278 1761 6690 6219 
5972 3841 7898 8805 8329 1764 9935 4263 1006 
3775 9410 4798 3304 8713 928 2241 3934 9609 
1184 293 1806 4173 5694 7245 6924 8506 8184 
4450 3758 9368 3295 7923 7618 1697 1719 668 
6968 1030 9009 7513 2148 7224 4505 3345 9240 
5361 2447 1206 8584 7598 8843 3495 1372 5792 
805 4258 3238 2501 1903 5126 3812 9827 8276 
2310 3686 2788 2059 6850 73 4968 8263 762 
1691 2167 6304 8883 3905 2941 7676 3096 8004 
7125 4772 7217 591 2318 3891 3773 3756 6297 
7626 219 4727 8768 1876 7440 4227 6550 4712 
554 501 4055 1332 3128 569 3453 3390 5311 
2911 8632 5287 3475 3303 8840 2798 408 6623 
2848 1851 3273 796 561 1300 3956 4556 7522 
8707 9700 9788 3530 6480 5805 4732 3301 3298 
5721 4244 2974 8895 4473 1552 6463 3719 2675 
5886 7779 3205 3280 1491 3761 4605 35 3498 
589 834 1847 2467 7439 4725 9661 3976 8763 
3839 3852 2177 4489 4802 5079 4249 9574 8125 
9681 7194 3389 5222 1873 6227 5463 8961 3866 
2799 562 9978 6830 7878 124 9928 8825 4280 
5048 8379 1959 6812 7950 6017 5365 2312 3361 
9504 9538 8136 8014 1397 1671 8720 1159 1993 
2182 2698 8469 4229 746 3054 9200 2696 7087 
1358 9406 5165 5660 2733 8609 7662 7327 2060 
7794 1717 7379 4536 5846 7247 5143 7895 5103 
9361 6058 1219 4829 211 7396 2841 4428 1845 
7448 5157 3081 1864 1746 5629 8809 9201 6909 
8365 3765 4325 912 1224 9829 2514 8504 5641 
3966 5807 3332 7464 8901 882 3384 4886 6035 
5067 2133 8853 9666 1430 9912 6145 5564 9555 
1286 7858 5047 1298 8267 1952 3417 254 8777 
9884 2505 4821 863 6659 3351 6840 3925 1451 
3555 5885 7193 6661 9647 8786 352 3894 7590 
63 7198 8035 6298 9588 8213 7772 4773 8119 
661 250 4176 1065 7869 9642 7477 4661 1681 
8753 4135 9708 4253 8325 9525 8321 4470 5171 
4680 2248 3445 4212 4895 6430 4595 9921 9804 
100 6179 3804 165 6477 8450 543 8096 5693 
7350 432 9008 2582 180 9951 4714 430 7445 
7517 4042 2268 730 3319 2853 5685 2222 4472 
2894 4992 7055 1415 1196 4519 623 8918 1992 
9879 2001 2121 1099 2905 8525 9486 4811 3595 
8351 2709 8822 8077 3738 9456 6677 6692 6285 
5787 1378 10 7965 5867 273 3429 2574 9649 
1655 7483 8873 5205 4689 3051 8180 342 6936 
9807 8802 3153 8792 4864 459 9949 9079 383 
2828 8876 6223 5075 5341 5029 4367 9904 5241 
1023 1233 1057 7855 6147 5338 542 4645 8752 
1230 8176 3817 8797 6295 8392 6366 8984 4313 
5435 2724 7851 8783 9823 2069 956 7487 5024 
8602 8930 4358 4458 998 9694 7835 4123 312 
9989 7516 5594 5698 3989 7102 2707 7059 2502 
6919 575 9725 1703 4705 7015 2328 9908 795 
3832 6359 7518 4636 6983 5551 3531 12 4939 
9146 9151 186 7258 8334 7046 5520 4582 8210 
3769 8131 4180 4403 7250 376 5645 5318 5931 
7562 2578 7688 3783 5689 5062 8103 216 2638 
1809 9275 8396 7136 1930 6234 9029 8053 9033 
6630 4594 8700 9613 5539 8667 868 3414 4486 
2201 3002 6073 2530 2380 1339 4747 2615 4382 
9392 7956 4148 4630 385 3142 5761 4808 6773 
5154 7915 8528 3464 2396 6788 7081 6669 2290 
2981 6414 7146 9562 3151 675 7002 3020 5608 
8017 3199 1482 2028 5514 149 9495 9031 401 
727 699 1294 3116 8765 625 8799 3250 8659 
9674 337 4459 6759 5557 81 6445 5224 6469 
7584 9864 6908 2372 2990 2236 5329 2516 4185 
752 6663 4954 9236 2950 8997 1641 4208 8764 
8147 546 7370 4251 3670 9905 1569 1724 8456 
9417 167 7747 2451 8155 1264 2026 278 8132 
4799 1523 2619 2699 7289 7052 5082 5023 694 
5151 3819 4465 5829 1434 8085 7534 6363 8209 
7155 9426 9349 405 9419 9929 812 6091 2648 
4828 6217 6882 4606 1394 9405 9294 6844 5450 
1017 6421 7951 6092 749 2190 1105 3565 1938 
4677 1139 3612 3649 5258 9141 782 5003 9306 
3786 5683 3742 8460 6518 5944 8000 5690 4902 
5823 8097 9327 2463 9526 7233 9002 5765 1268 
4467 1707 1910 6196 1842 8054 1675 8151 3950 
2600 8552 5833 9527 8861 3749 700 4314 7210 
7668 9144 4385 142 8725 8646 7033 9902 4138 
9548 9877 9344 8164 5921 6443 5290 38 9318 
3458 3160 7235 1778 7963 2375 5646 3318 9726 
4336 9837 2892 3167 6981 5170 5949 4380 9063 
6891 6365 8439 7550 5573 1974 8844 2446 1226 
8749 3831 7333 2072 7725 8882 2018 7003 7953 
4547 3990 4189 9461 6532 3923 8405 5757 9395 
6216 1684 3215 9474 8546 4235 7604 1267 8348 
6718 2882 7039 2599 7419 8872 2066 4633 8149 
2781 7569 4308 1496 9166 5589 4585 6711 1596 
1374 9213 9345 9199 9517 2983 5936 8889 7812 
1769 8326 8415 804 7669 3410 1192 7917 6093 
3840 3687 7975 172 5022 8412 9706 2411 1530 
4558 3035 1494 193 3952 3896 9522 6348 5987 
1961 3209 3931 45 5672 9241 4162 6112 7913 
3696 8620 6400 248 3103 2562 4181 1027 3400 
574 4269 3432 5370 3898 1740 7486 4488 1590 
3313 6184 2873 2202 7077 672 8701 6975 8158 
999 8808 5895 1969 5820 2342 3640 363 7006 
7660 770 9926 2797 3651 7254 2529 3603 7537 
4429 7459 8905 8785 7394 1835 7686 7124 8251 
913 8518 1164 3009 5096 1762 1567 7408 2785 
9173 2783 8647 9266 6549 6964 3326 5486 8366 
7442 5069 4113 4315 4562 3962 9334 6743 1273 
1975 809 7557 4550 8382 9641 1101 8824 1766 
2123 4193 7701 5315 7212 4291 6810 8135 1837 
9690 5865 4741 8586 7410 2821 7511 9234 8964 
9164 4102 6971 1265 6990 5553 9668 6622 5748 
9887 347 4949 1795 7861 160 6991 2252 8046 
7189 9363 8615 8776 2984 997 9671 8072 7819 
7270 6800 2384 4928 3708 3910 9648 4292 5917 
1207 3862 3497 1418 7043 792 436 6624 2030 
4783 3932 6263 9913 1287 7366 7731 9221 3162 
8495 34 8954 2004 1048 4495 5875 4398 9932 
1824 8143 3126 3243 3339 7084 8195 7751 5806 
7596 3568 5197 2685 9187 7543 7799 3675 2764 
179 9510 2639 5107 4052 9024 1100 4104 3774 
5933 9423 2016 6917 894 4174 2378 5137 7841 
336 862 8841 9185 7314 9001 8142 7879 7990 
1962 6838 4435 8154 4476 2749 5853 5819 2426 
281 7115 406 9785 5911 3861 3833 4885 7558 
990 2891 4751 9936 6395 5471 2485 9757 644 
7698 3995 7306 5256 9547 471 5977 6005 1148 
2874 1743 4863 1362 8958 987 9482 9959 2888 
1947 2050 8591 6556 1582 2831 3031 9403 6368 
2091 6487 734 4541 3900 7266 9907 6259 2954 
7594 9992 1898 4513 4155 4298 2088 4940 6805 
177 5207 2307 1309 1929 7008 2377 3838 5856 
2550 5448 4239 8454 6898 8706 8188 5235 6862 
5269 2462 6024 9795 1850 394 774 4271 740 
6765 1062 2134 8581 586 1979 1638 396 1157 
1912 4905 60 6460 7996 3732 1914 8823 1653 
1577 9351 9809 8730 6703 2812 1834 8181 971 
1213 4618 9931 9511 6561 5080 317 2012 2313 
9678 3521 4632 3730 2048 4739 7075 585 9994 
2714 3435 761 2371 563 476 2856 8900 9603 
3935 1628 4464 7847 7432 2180 8080 9813 11 
4236 4852 9869 3564 6799 9032 7761 4095 7968 
8050 9137 3325 6059 4567 6408 1254 9625 5652 
8847 1874 7434 5457 4938 1435 7431 1354 7768 
2970 8394 7343 5161 8912 4106 3460 3859 1949 
9523 4647 6225 5918 3083 840 3628 983 2768 
5225 120 5862 54 4437 4300 4317 3770 6493 
6495 8946 3053 1526 7020 4360 5501 2174 5540 
9672 1779 6009 7164 8380 4540 4948 906 2063 
5112 2070 5443 4711 1782 6941 709 7339 2664 
3816 1248 8092 2 1511 1432 1728 348 7113 
5104 3619 8938 2483 7482 7490 4744 7414 3178 
6864 7061 6388 7213 1456 2487 4909 4064 9919 
4424 4278 5409 1936 1720 4003 8333 5628 9381 
7908 6300 4962 7263 6189 646 2865 1375 2242 
9670 452 3958 9170 3316 6626 393 5778 4386 
2605 299 525 2064 7650 1649 654 4045 28 
5232 3454 2929 16 404 4986 7733 366 1082 
9013 7300 5204 5286 2076 4572 614 7939 3309 
57 9494 1931 497 7049 8866 5543 4815 2904 
67 4377 4749 4341 3131 8780 8498 9767 4015 
2910 3965 2246 1408 4191 3722 5412 3695 8255 
8962 7999 2019 4612 9488 4735 3072 1625 8327 
3645 2614 4601 5437 9960 9208 9248 1260 3067 
2832 6313 2431 4640 8484 5615 3466 447 3543 
9710 4624 1948 9979 9543 1104 5403 2474 3607 
9798 9436 6136 6208 9086 5464 1789 5558 4789 
736 1533 9396 4669 7629 4934 9129 8948 4935 
6458 6881 9889 8248 597 7182 4979 148 389 
7870 8714 4414 6398 7000 677 3406 7705 9586 
1246 9966 2439 1407 4417 1352 4062 3597 4075 
3421 1161 6944 1266 4654 4857 2087 944 9121 
4657 8590 2670 4348 1830 6323 3937 3523 1665 
93 3845 8315 1599 326 2883 3092 2980 5179 
8003 8747 2808 74 6966 6427 2043 8769 9304 
4574 7406 3279 5479 5756 6644 8417 9383 3299 
5582 3284 370 8631 1421 4498 8538 7040 365 
1812 5185 1306 6776 445 9257 5655 9073 5599 
2480 7797 8529 6524 334 718 9561 8683 3093 
4607 6253 7575 1133 638 6404 1323 1212 5746 
3186 382 3735 91 905 9676 3105 5395 6597 
1039 4692 6438 8879 1031 6322 8123 3509 4945 
9552 4338 2809 2427 4901 7293 8068 5815 303 
5793 7271 4080 992 1901 9308 3381 5373 5307 
3110 1488 2413 3594 8888 1768 1464 7848 557 
7776 5725 1581 25 4919 9509 5900 2398 3388 
6144 9675 111 4758 3462 3399 8341 5492 7317 
4592 4195 7462 6798 8821 5602 8897 7830 3559 
3413 8038 5924 6401 9369 1614 6436 4482 6617 
3222 7946 3443 6537 1542 8760 7821 1443 649 
7540 9289 2708 5679 6267 7322 5533 6795 5011 
9302 1412 7423 4793 4912 199 4570 898 353 
7109 3195 8356 1921 5664 6339 3572 1661 4427 
1996 6585 6880 9627 4340 2322 5350 8169 7874 
3034 4469 5324 5673 4216 3172 1404 8033 3596 
9592 88 9990 9539 3781 4660 2021 7687 5882 
6807 4169 8648 7525 5339 9598 1913 3156 1136 
9238 1776 4497 1890 4785 6609 2285 1831 9312 
3347 416 8194 4011 1166 4125 8340 3659 2706 
1615 9602 4792 6149 9196 6526 6792 8515 2765 
103 9386 8413 5970 1422 9774 9454 9245 9806 
2801 6697 1419 6535 651 3066 4766 238 3155 
3813 7206 360 1012 4046 4487 295 2109 5404 
4537 5055 4151 5839 9276 2264 6442 2647 2287 
7722 1934 3715 6222 5956 2931 902 8493 8093 
9768 2299 4418 4471 6865 346 4730 1723 1220 
8235 5852 2065 1748 6685 5622 4929 4276 5090 
5494 681 5043 5363 7850 4987 2367 6367 417 
2115 470 1235 4100 1767 4143 3544 8718 9156 
5186 1311 1915 714 6997 1216 1643 6821 5768 
9251 4393 4958 1575 7740 3137 6615 3258 1475 
1865 313 7400 2448 205 841 1690 6709 8908 
5399 8065 6409 7617 2475 1726 8261 2052 1498 
8687 4294 8436 8661 6954 7192 1888 2406 5423 
9301 5890 1742 5609 7651 5417 9645 3396 2864 
5336 5511 6735 3030 3778 8363 8306 6321 3337 
6542 7593 800 9553 964 1113 2243 3033 1817 
8420 5769 7149 260 2778 6326 5974 1353 1370 
6224 6879 8886 4491 6837 2923 2143 398 9123 
7609 1476 2056 923 279 5555 719 8025 5305 
5 7547 5502 8941 6939 6714 9040 2111 1090 
3548 2459 5242 7452 9203 9155 8368 2933 612 
1639 6307 4849 4769 1712 8854 8896 2005 618 
6935 6377 2320 4774 4306 7773 808 9091 1666 
4822 5061 8554 9438 7012 3508 962 8898 8849 
8660 6205 7845 2715 7457 333 3721 8870 8384 
4074 4926 8816 6268 8185 2137 6319 9766 8645 
8891 8008 56 5147 7237 7481 192 7624 5950 
780 3223 2083 4145 8002 2029 8198 895 9140 
9168 230 8299 8245 1554 1882 2512 1176 1791 
3308 3916 2938 5743 9615 2192 2540 1203 5723 
2316 4932 2314 2332 8414 5083 3060 2934 6033 
7162 58 6178 2901 3472 9953 479 440 5888 
9763 2594 1215 9051 6925 7471 4937 1210 2267 
7053 7630 9453 785 8204 6929 9901 1965 5985 
2999 1005 8055 9295 8971 2849 9160 6455 7478 
1863 7949 4431 5308 5277 7563 7633 3493 245 
8113 839 8550 960 9100 9652 9732 9434 5986 
3513 6209 7699 1549 1588 9473 3618 2729 4020 
9358 4213 9531 7696 2620 9459 7151 9162 7296 
6081 2610 669 1109 4590 9443 4504 4105 1800 
8349 5468 9791 7170 5738 2009 5330 6846 2968 
3229 9442 8346 6705 1238 7255 1844 8960 3621 
7304 9022 4506 5716 8201 6278 3674 4819 2081 
3125 1627 2617 6122 6725 5340 5117 7832 2515 
1229 9640 3434 900 787 601 7225 2457 508 
9847 9803 9030 2722 7351 5184 7639 9177 3314 
82 2324 7345 7561 4307 4532 3139 2622 9749 
1428 3986 1854 3338 1227 3353 446 1570 5606 
8934 2037 1237 5810 811 7480 8994 9883 8233 
8026 9952 3112 6488 271 5896 104 3446 6357 
5303 364 3082 7090 1808 4759 2989 1014 4008 
9608 3488 5544 8425 3064 735 1169 6892 2773 
8159 4071 7465 6139 7572 3127 6784 2912 8957 
6270 6742 9356 3281 8228 9133 2703 5066 8222 
6497 6651 2247 3967 8778 7591 7716 6242 8914 
6948 7715 4924 6717 5569 1832 4776 1906 2103 
5001 5264 5144 7281 8517 6474 3519 5715 2753 
6108 1281 6176 7344 8512 6540 6701 6702 8027 
7045 9010 1356 4153 2217 1016 3255 3459 995 
4922 3484 1222 7147 9167 7881 6631 3642 6856 
2341 4289 1512 8287 1341 8974 3662 7775 7280 
6375 1565 8317 7388 4137 6183 7836 425 2686 
9717 6277 2531 2725 2589 9846 3201 3482 4390 
5465 7092 468 6105 573 8148 6716 6867 7354 
6126 5118 1664 8289 758 6992 2643 9865 2452 
9390 6371 7767 9491 1591 1877 6828 8522 8668 
15 1747 7358 3546 1710 7215 9110 381 7368 
5803 3798 4908 8402 9283 604 1344 5446 3239 
6166 6027 6165 8704 9891 945 4733 463 8627 
5091 748 8410 6818 5938 2820 8227 1270 2508 
87 7502 8163 329 26 6876 1274 6134 5732 
2609 6213 7474 1944 9611 6349 1112 2478 5106 
4447 7717 823 1920 8193 3570 3397 1044 411 
1861 777 2537 2964 4451 3340 5920 6238 5545 
7129 5026 272 5369 5788 2726 1078 4907 4622 
570 8461 921 7641 8300 4913 6529 4750 526 
7083 195 8654 6038 3794 95 708 872 9518 
39 4217 197 2945 2672 598 414 4346 1033 
3269 4364 9391 6021 6574 5592 8150 5857 2400 
9393 4344 7846 7988 2956 3517 6764 2196 4635 
8842 5430 4439 48 9686 8100 3712 3818 1462 
5632 1026 22 8373 5658 59 9255 8884 1178 
1450 8819 6842 737 3955 3697 1799 6699 7984 
4623 5213 5991 9558 6953 2705 2040 7246 3086 
5957 1515 2362 8526 350 6251 925 9034 6815 
1118 6440 4446 5251 2927 2482 5902 8732 4533 
7542 7385 8196 7221 5631 6905 4161 8860 3330 
941 7428 4666 2649 5172 3669 3415 8022 1580 
2681 4051 7380 9090 2573 8028 5624 5158 5296 
8664 6636 7877 1770 1067 7375 9737 4107 6491 
2867 955 495 5781 541 691 8621 6370 4412 
6987 2909 972 5238 1492 6410 5516 338 4956 
2325 30 5804 7581 1524 9095 1750 4673 9556 
5070 634 4608 6576 8383 8551 4959 5513 5100 
5012 4587 8937 590 6599 3494 3801 6687 8160 
4197 9850 2616 5208 5669 5481 1843 904 8406 
6767 3877 2673 3321 6570 1448 6218 9235 1259 
9458 9259 9347 9424 7546 1713 5964 8115 7451 