# vtk DataFile Version 4.2
Generated by LIGGGHTS
ASCII
DATASET POLYDATA
POINTS 10000 float
-0.018445 0.000891725 -0.0367389 -0.0181655 0.00392757 -0.036866 -0.0185958 0.00565487 -0.036657 
-0.0180518 0.00734243 -0.0369261 -0.0189361 0.00884121 -0.0364855 -0.0190149 0.0108171 -0.0364391 
-0.0189347 0.0126108 -0.0364856 -0.0181085 0.01415 -0.0369061 -0.0181129 0.0161787 -0.0368985 
-0.0181328 0.0192008 -0.0368844 -0.0197293 0.00194782 -0.0360566 -0.0178556 0.00240158 -0.0359745 
-0.0203927 0.00357536 -0.0356897 -0.0197081 0.00523685 -0.0353173 -0.0210951 0.00637761 -0.0352783 
-0.019486 0.00697614 -0.035829 -0.0207788 0.0081685 -0.0354616 -0.0198412 0.00976487 -0.0352368 
-0.0176899 0.00984731 -0.0356717 -0.0203658 0.0117448 -0.0356985 -0.0212815 0.0132004 -0.0351636 
-0.0196914 0.0142695 -0.0360842 -0.0213035 0.0158732 -0.0351523 -0.0196566 0.0160604 -0.0359834 
-0.0197182 0.0178619 -0.0360702 -0.0179243 0.0178296 -0.0357385 -0.0207427 0.0192104 -0.0354843 
-0.0224054 0.000897344 -0.0344593 -0.020609 0.00089916 -0.0348868 -0.0187032 0.000892054 -0.0349735 
-0.0215849 0.00240712 -0.0349783 -0.0198679 0.00245878 -0.0343344 -0.0180544 0.00236358 -0.0341908 
-0.0186891 0.00376158 -0.0351502 -0.0219245 0.00415903 -0.0347755 -0.0203008 0.00417338 -0.0340035 
-0.0179957 0.00537943 -0.0347933 -0.0225947 0.00697515 -0.0343408 -0.0222361 0.00872219 -0.0345658 
-0.0186233 0.00820688 -0.0348428 -0.023044 0.0102419 -0.0340347 -0.0215379 0.0103141 -0.0350126 
-0.0220756 0.0118594 -0.0342767 -0.0186297 0.0114388 -0.034799 -0.0191574 0.0131514 -0.0347929 
-0.0223301 0.0145024 -0.0345067 -0.0203305 0.0145444 -0.0344446 -0.0186637 0.0151124 -0.0348256 
-0.02279 0.0162111 -0.0342032 -0.0194751 0.0170418 -0.0344933 -0.0214688 0.0176501 -0.0349897 
-0.0224548 0.0191453 -0.0344317 -0.0189777 0.0192056 -0.0351443 -0.0251155 0.000893002 -0.0325392 
-0.0233005 0.00090221 -0.0329043 -0.0212897 0.000897405 -0.0330534 -0.0195268 0.000898301 -0.0333833 
-0.0235477 0.00256454 -0.0336897 -0.0244058 0.00402176 -0.0330691 -0.0186538 0.00383917 -0.0333572 
-0.0225342 0.00406208 -0.0330992 -0.0235071 0.00544397 -0.0337123 -0.0217129 0.00555865 -0.0336695 
-0.0196499 0.0058932 -0.0336423 -0.0244297 0.00684226 -0.0330572 -0.020919 0.00717086 -0.0336801 
-0.0181268 0.00684779 -0.0337666 -0.0237028 0.00840455 -0.0335788 -0.0220221 0.00830603 -0.0328307 
-0.0187049 0.00841747 -0.0330691 -0.0244906 0.00996153 -0.0330119 -0.0206062 0.008936 -0.0338352 
-0.021658 0.0100653 -0.0329047 -0.0203583 0.0109329 -0.0338118 -0.0187669 0.010136 -0.033575 
-0.023793 0.0123937 -0.0335188 -0.0189985 0.0118529 -0.0330789 -0.0222651 0.0133037 -0.0331722 
-0.0204611 0.0127466 -0.0336262 -0.023796 0.0141929 -0.0335126 -0.0208253 0.0145001 -0.0327346 
-0.019096 0.0139139 -0.0331767 -0.0250749 0.015039 -0.0325755 -0.0189244 0.0157007 -0.033126 
-0.0238311 0.0163269 -0.0326433 -0.0206359 0.0161322 -0.0334711 -0.0176843 0.016868 -0.0336957 
-0.0251091 0.0175964 -0.0325399 -0.0235402 0.0177586 -0.03369 -0.02175 0.01752 -0.0332223 
-0.0186691 0.018364 -0.0335882 -0.0244048 0.0192044 -0.033071 -0.022631 0.0192072 -0.0326525 
-0.0202705 0.0191759 -0.0337542 -0.0265066 0.00104543 -0.0314136 -0.0194796 0.000896998 -0.0315816 
-0.0260937 0.00278043 -0.0317547 -0.0243558 0.00244999 -0.0320915 -0.0222034 0.00235341 -0.0325159 
-0.0204062 0.00238615 -0.0325338 -0.0186222 0.00217266 -0.0325072 -0.0230927 0.0035591 -0.0314751 
-0.0193579 0.00360522 -0.0317236 -0.0175779 0.00350767 -0.0319188 -0.0258796 0.00511164 -0.0319307 
-0.0223085 0.00516218 -0.0316707 -0.0209271 0.00422501 -0.0323299 -0.024068 0.00543147 -0.0320021 
-0.0207827 0.00607425 -0.032219 -0.0188121 0.00525699 -0.0321789 -0.0259678 0.00690235 -0.0318575 
-0.0240852 0.00728464 -0.0313533 -0.0226922 0.00665636 -0.0325829 -0.0184354 0.0070077 -0.0320035 
-0.0252018 0.0084072 -0.0324653 -0.0201203 0.0077554 -0.032185 -0.0250515 0.0100138 -0.0313032 
-0.0235715 0.00893042 -0.0318658 -0.0198819 0.00953387 -0.0322992 -0.0263578 0.0112364 -0.0315361 
-0.0205459 0.0111824 -0.0320422 -0.0175678 0.0108103 -0.0324239 -0.0247296 0.0115569 -0.0322353 
-0.0224893 0.0116328 -0.0325475 -0.025266 0.0132593 -0.0324189 -0.0236038 0.0129271 -0.0318159 
-0.0210302 0.012907 -0.031931 -0.017586 0.0125427 -0.0319468 -0.0264708 0.0143405 -0.031443 
-0.0230391 0.014611 -0.0314881 -0.0259301 0.0160552 -0.0313746 -0.0221483 0.0157064 -0.0326017 
-0.0201711 0.0158555 -0.0317507 -0.0266066 0.0177177 -0.0313331 -0.0228933 0.0176296 -0.0318445 
-0.0197923 0.0174296 -0.032541 -0.0179623 0.0176068 -0.0320886 -0.0258254 0.0192023 -0.0319719 
-0.0238636 0.019082 -0.0313546 -0.0209722 0.0187465 -0.0321602 -0.0191284 0.0192033 -0.0320722 
-0.0278506 0.000898505 -0.0302331 -0.0239022 0.000897064 -0.0312142 -0.0212476 0.000897024 -0.0312589 
-0.0176753 0.000919353 -0.031632 -0.0270054 0.00248425 -0.0301926 -0.0250145 0.00220176 -0.0304364 
-0.0225644 0.00200402 -0.0307537 -0.0203268 0.00235644 -0.0307374 -0.0184203 0.0024088 -0.0307442 
-0.0248232 0.00389596 -0.0311372 -0.0214835 0.00373988 -0.0306994 -0.0270244 0.00410699 -0.030966 
-0.0234903 0.00489345 -0.0303437 -0.0201341 0.00500688 -0.0309238 -0.0271134 0.00590654 -0.0308919 
-0.0252965 0.00598109 -0.0304649 -0.0186979 0.00600661 -0.030543 -0.021858 0.00748545 -0.0312314 
-0.0202866 0.00683586 -0.0306529 -0.0271756 0.00774641 -0.0308302 -0.0254867 0.00837289 -0.0306895 
-0.020372 0.00864307 -0.030644 -0.0187931 0.00780753 -0.0304371 -0.0280675 0.00907575 -0.0300157 
-0.0267791 0.00952345 -0.0311845 -0.0219152 0.00932597 -0.0312845 -0.0184185 0.00972461 -0.0312753 
-0.0276863 0.0108814 -0.0303761 -0.0232919 0.0106147 -0.0313057 -0.0206288 0.0104095 -0.0304207 
-0.0245212 0.0116152 -0.0304584 -0.0218239 0.0116817 -0.0308825 -0.0202583 0.0124153 -0.0303852 
-0.0189134 0.0114766 -0.0313239 -0.0276114 0.0127683 -0.0304502 -0.0258455 0.012787 -0.0307848 
-0.0226391 0.0131852 -0.030325 -0.0193499 0.0135429 -0.0314458 -0.0278249 0.0146663 -0.0302541 
-0.0247337 0.0142919 -0.0309796 -0.0211942 0.0144341 -0.0309938 -0.0176993 0.0142656 -0.031446 
-0.0241621 0.0159974 -0.0309059 -0.0195139 0.0149469 -0.0303458 -0.0275378 0.0164214 -0.0305091 
-0.0223749 0.016203 -0.0308861 -0.0248873 0.0176357 -0.0307569 -0.0207269 0.0173938 -0.0310059 
-0.0189886 0.0178695 -0.0306446 -0.0266035 0.0192036 -0.0303265 -0.0221351 0.0191835 -0.0308616 
-0.0201826 0.0192058 -0.0306211 -0.0177576 0.0192018 -0.0309086 -0.026047 0.000916468 -0.0296771 
-0.0242548 0.000899054 -0.0294555 -0.0224613 0.000901041 -0.0293369 -0.0206762 0.000927198 -0.0295552 
-0.018864 0.000895225 -0.0298941 -0.0293986 0.00252267 -0.0287234 -0.0257779 0.00278979 -0.0289175 
-0.0217963 0.00268361 -0.0292812 -0.0283635 0.0036381 -0.0297495 -0.0235069 0.00318283 -0.0297721 
-0.0191541 0.00384359 -0.0299633 -0.0266011 0.00498272 -0.0294414 -0.0249409 0.00430655 -0.0293959 
-0.0207155 0.00414164 -0.0291316 -0.0283922 0.00543763 -0.029717 -0.0242114 0.00590978 -0.02903 
-0.0216303 0.0054069 -0.0300264 -0.0199337 0.00574869 -0.0292685 -0.0285183 0.00738502 -0.0296032 
-0.0268315 0.00683092 -0.029324 -0.0251368 0.00744418 -0.0291882 -0.0229659 0.00659528 -0.0301334 
-0.029416 0.00865742 -0.0287142 -0.0237853 0.00855959 -0.0301256 -0.0220623 0.00832467 -0.0296605 
-0.0263226 0.0100107 -0.0295207 -0.0226088 0.0100397 -0.0297431 -0.019081 0.00939067 -0.0296416 
-0.0287173 0.0102997 -0.028874 -0.0245306 0.0100793 -0.0295332 -0.0192305 0.011179 -0.029581 
-0.0285002 0.0120693 -0.0290555 -0.026723 0.0118367 -0.0291876 -0.0232093 0.0119125 -0.0291955 
-0.0215064 0.0113383 -0.0291527 -0.0293735 0.0136063 -0.0287571 -0.0275512 0.0135807 -0.0288525 
-0.0245641 0.0131774 -0.0295832 -0.018116 0.0129535 -0.0302849 -0.0260675 0.0142018 -0.0296992 
-0.022365 0.0148476 -0.0297086 -0.0207467 0.0142049 -0.0292794 -0.0178766 0.0146273 -0.0296784 
-0.0289961 0.0154379 -0.0291262 -0.0270526 0.0155796 -0.0289121 -0.0254741 0.0160037 -0.0296446 
-0.0241073 0.0148927 -0.0293095 -0.0208763 0.0160178 -0.0298631 -0.0185622 0.0163576 -0.0297844 
-0.0286234 0.0174332 -0.0294918 -0.0263499 0.0175709 -0.0295633 -0.0246552 0.0174553 -0.0289829 
-0.0232219 0.0176558 -0.0300823 -0.0176313 0.017849 -0.0294047 -0.0283204 0.0191821 -0.0297937 
-0.0247345 0.0191418 -0.0297862 -0.0229053 0.0192056 -0.029238 -0.0188145 0.0192054 -0.0294611 
-0.0299316 0.000898007 -0.028169 -0.0281101 0.000940196 -0.0284634 -0.0253293 0.000904875 -0.0280208 
-0.0194831 0.000898272 -0.0282125 -0.0275487 0.00264881 -0.0284841 -0.02414 0.00249171 -0.0282439 
-0.0198891 0.00246504 -0.0289964 -0.0191935 0.00390719 -0.0281736 -0.0295634 0.00430501 -0.0285579 
-0.0277993 0.00441211 -0.028233 -0.0261136 0.00408428 -0.0277097 -0.0241269 0.00423349 -0.0277971 
-0.0227411 0.00490923 -0.028711 -0.0180776 0.00503577 -0.029166 -0.0282622 0.00614221 -0.0280685 
-0.0263593 0.00585376 -0.0278926 -0.0298492 0.00696991 -0.0282543 -0.0233698 0.00757123 -0.0286884 
-0.0217716 0.00671316 -0.0287966 -0.0186931 0.0069799 -0.0288479 -0.0278347 0.00806378 -0.0280867 
-0.0203151 0.00773243 -0.0290938 -0.0176042 0.00836904 -0.0292107 -0.0270026 0.0096457 -0.0279001 
-0.0252895 0.00904563 -0.0282777 -0.022654 0.00912529 -0.0281335 -0.0210896 0.00961018 -0.0288767 
-0.0278167 0.0112206 -0.0276211 -0.0236717 0.0106072 -0.0280527 -0.0201454 0.010898 -0.0280623 
-0.0299401 0.0114034 -0.0281555 -0.0249979 0.0116178 -0.0287259 -0.0175688 0.0116938 -0.0291334 
-0.0259526 0.0131181 -0.0281874 -0.0242316 0.0135364 -0.0278609 -0.0225594 0.0134821 -0.0285514 
-0.0203363 0.0125966 -0.0286019 -0.0187219 0.013381 -0.0286495 -0.0254608 0.0148459 -0.028137 
-0.0216608 0.0156745 -0.0282848 -0.019878 0.0155339 -0.0284414 -0.0181004 0.0156401 -0.0282077 
-0.0300342 0.0164491 -0.0280591 -0.0280648 0.0161985 -0.02757 -0.0232231 0.0163828 -0.0288195 
-0.0199048 0.0172556 -0.0289932 -0.0288855 0.0177846 -0.0276904 -0.0269755 0.0176665 -0.0278825 
-0.0234411 0.018171 -0.0278719 -0.0218602 0.0174579 -0.0283395 -0.0296465 0.019201 -0.0284773 
[...]
POINT_DATA 10000
FIELD FieldData 7
id 1 10000 int
2173 4476 114 9615 2811 4318 270 2430 1383 
86 1576 280 4721 4260 4688 42 4501 1625 
1462 3388 8831 421 4689 4874 1847 4605 273 
3993 1720 2568 4373 9374 3352 2007 1401 2713 
3860 4793 1309 773 302 2619 449 789 861 
1300 3323 1081 1236 2804 1248 1874 2533 4174 
2755 1639 2471 4227 990 7261 675 3399 1209 
4083 3822 3289 1422 6115 3821 401 3981 226 
268 332 1481 2125 2292 1079 4500 4803 869 
2631 4657 1407 3099 1958 943 1821 3205 3299 
1703 2884 4462 954 791 2933 1551 949 1103 
3408 1382 1640 4089 5341 2087 4149 977 2921 
1130 1649 2329 4405 4629 2635 1183 4812 4410 
1064 769 215 3243 1325 8575 1590 3284 352 
1440 853 264 3772 1938 533 7878 411 1189 
2861 6232 2794 922 1190 2177 3047 3790 3623 
9369 1767 2242 1642 4660 5562 2200 3725 2937 
4025 2149 1561 4525 3147 3410 3024 3493 432 
3786 3063 698 2703 4642 4792 8313 2458 3273 
3955 4661 1813 1055 2684 3976 3516 1390 1624 
3192 4049 3189 4234 5571 4931 3598 1071 4833 
2060 4584 3461 1120 8173 4649 3957 1059 8835 
4804 2217 1664 7497 3936 1028 5001 3965 2011 
9438 2230 26 2445 3344 3027 7749 2873 1347 
3570 4829 4332 2901 3246 3345 2687 1223 3472 
1766 729 570 4677 4375 1753 1098 772 3113 
174 3018 7739 8904 370 3252 7384 4281 1903 
3389 2187 252 811 1043 1477 1973 6229 2786 
7889 3506 2605 9201 4579 871 3868 2565 1553 
4086 2503 1921 2903 5803 4745 4244 1307 3042 
2955 162 4282 1841 9224 4560 1738 3839 3390 
2971 3040 817 3471 3035 4684 2312 4636 1318 
1301 4857 4368 2748 4304 2448 3670 3293 1814 
348 1795 4648 4760 2393 1233 3587 1848 2342 
4680 5 1619 6687 8095 1964 1156 3307 8370 
7953 6599 9841 1460 928 1069 3075 894 5504 
4235 2275 4406 5930 4490 4718 1505 2526 5321 
2974 2849 4256 2402 3239 2280 5366 1677 4084 
502 2018 176 2097 9139 5865 1680 1145 2562 
105 9769 3816 4292 1689 6966 1513 2068 1330 
3429 1217 3394 3708 9504 4749 7738 3855 8134 
2915 741 7851 1392 4682 885 1879 5570 5876 
522 3478 283 6154 6257 2255 1520 4022 455 
3857 1377 566 5780 7528 839 1434 2662 646 
3549 6416 8806 2006 4457 7177 9214 2074 1929 
23 1374 2411 2479 322 1468 2205 2695 8538 
3002 4852 605 71 2081 4099 4004 1177 4515 
3649 751 4996 3538 4907 3391 2548 7094 3847 
4873 2389 8529 3656 670 4414 1275 1960 4008 
3079 7652 527 6988 4618 431 2089 2388 5365 
7113 5251 1228 5214 2481 8951 7588 5296 4243 
6658 130 2888 1322 5396 6888 6355 9745 3300 
3560 7118 7825 4722 7731 3194 6095 9126 2524 
4798 3172 6705 8920 6094 4669 659 1340 1710 
2232 7441 9650 3103 8340 8868 1398 937 4606 
3792 9400 3452 2414 63 3475 244 7202 2593 
2123 1613 4537 2617 1774 624 4851 4506 1415 
6592 6822 6379 161 4499 1150 6056 1557 9 
2413 3568 7695 1651 5798 4150 7230 7596 4389 
5407 242 553 5563 9519 3950 419 5482 8241 
474 8601 7503 6311 6673 8721 3144 594 8464 
8157 8696 4806 4519 6952 2618 8038 3801 6628 
6712 4341 947 9333 6405 4193 3245 5264 4801 
4879 6534 4108 3371 4686 1603 3050 3453 3582 
4009 7557 2351 2696 835 3500 6370 777 4713 
4040 524 6489 9293 214 6561 6245 3470 1645 
4909 8343 13 8816 8440 7696 3645 803 1324 
3633 3244 7181 2615 447 4630 450 8613 3606 
4831 9292 5355 1267 1579 7812 6691 1997 3840 
1339 5970 8431 2443 5345 2359 3437 8512 1600 
1192 4716 5795 7973 7660 3958 3501 1890 610 
4764 7326 7267 3116 460 2922 8619 3689 4571 
32 2124 3915 2203 1502 7289 2221 6782 4832 
257 2978 2699 4445 9485 4667 8509 1087 1101 
4056 1230 2734 3013 1981 7790 106 2801 3973 
2785 542 2450 2592 1019 4705 3653 2096 8229 
8382 2291 4458 1569 2989 1568 3051 4126 6868 
1323 7434 1362 2891 1006 1272 5866 1206 6300 
7941 6486 6338 4120 3577 5424 7828 1472 654 
8317 3201 3983 2138 8795 6203 7207 3659 3984 
4423 7710 4370 2399 5454 7601 5830 9176 2422 
394 1876 5480 9686 4747 8880 349 6012 7285 
945 461 3859 2835 8605 4897 2659 476 306 
5672 7068 2902 577 681 4146 5799 4596 4030 
9455 8357 184 2763 3365 3658 5891 3956 2600 
3530 6032 9363 7467 2674 1394 5501 8216 9079 
1675 1370 3641 5809 650 6539 6654 1293 1768 
989 2225 3702 8552 4817 6547 463 3525 4164 
1294 1490 7273 8082 7547 2867 1096 1016 1277 
8863 9403 6732 6791 710 4369 8897 5822 6190 
3069 9283 5845 859 4530 139 665 1990 3853 
5968 7574 483 7394 9469 5671 6441 2367 4696 
5389 5402 5160 4443 1255 4270 1776 2322 5543 
6471 1922 1971 973 6317 8167 6425 2133 1419 
5470 9022 9223 554 2439 1106 1243 1122 7960 
3177 8984 3163 7675 6894 1944 5297 7107 4726 
1256 6498 279 4 2864 8224 4112 1140 5075 
4455 3800 2945 2457 326 8145 487 1015 8123 
7157 4157 4486 5589 7698 8660 1601 3020 1704 
1426 5559 4972 8239 8114 2051 4514 2514 6103 
955 3433 284 6260 8719 8368 6528 4214 4114 
1809 1869 7796 6889 8927 2750 3223 991 3070 
3032 4337 1969 1602 3132 8916 8598 9962 2574 
3767 6197 157 8169 1926 4652 1933 8939 1983 
5416 8617 2709 959 3592 3536 5503 5693 8395 
5426 2847 1360 3294 7475 6995 4863 3738 3107 
3895 3133 2640 7385 6934 7112 1865 4634 7634 
3393 2318 1162 6173 60 8077 200 934 3212 
6447 7807 6775 8204 4225 1139 9131 7832 8514 
2686 371 4180 5506 6835 6634 7222 8027 8684 
1985 2845 4116 1701 4524 5920 404 4558 4988 
8234 8138 4508 3257 3599 490 3151 9042 4431 
7479 5583 5779 5147 3905 4844 2309 1857 6332 
1195 7654 8336 6503 381 2531 970 3435 1759 
3179 7856 8936 573 7197 4242 3369 321 3519 
7620 3878 6274 913 3959 316 7206 2556 7544 
9801 4871 4795 3639 1616 6391 8186 5929 9680 
6963 8989 5815 3318 9011 4995 3380 1892 2948 
1734 5136 2537 3932 4307 311 3055 717 7456 
5880 6359 3436 2182 8923 8170 1945 4991 9177 
8310 9833 3647 3313 5498 3994 1988 5633 6216 
5766 2222 9321 9319 5539 9382 5536 1935 3539 
3939 2642 9006 7337 5286 3552 2961 2167 3705 
849 2459 341 609 7431 1559 5856 2720 987 
2152 9491 6792 1727 4262 513 5115 7886 5192 
4891 4664 8245 1430 3761 606 9083 8883 1994 
101 4057 6553 9483 2814 3625 2819 1102 2452 
5148 4880 4082 4348 2416 7752 9125 6309 74 
3580 2035 7583 4540 2434 2163 2444 3817 7404 
499 4152 1181 3948 6781 7507 5917 4284 2969 
8164 4229 6720 7699 7210 6970 6250 2281 4482 
3891 2596 8029 9203 5352 9533 3629 3865 266 
4340 8405 7488 8677 451 9488 8862 9047 3218 
2077 4497 7515 6033 6745 8258 3802 3462 2083 
798 1386 3456 4081 4709 7997 1333 2677 1030 
1635 7082 1365 3600 2257 6900 5956 2366 714 
3479 1855 6233 1658 1306 3944 701 4096 7850 
2614 2998 952 5089 8521 269 5479 6455 5419 
1678 1335 4645 5443 7053 5541 2078 2550 22 
827 8446 4315 2009 2371 2721 5768 5720 6591 
9624 7035 6097 8534 8568 8499 2789 3126 4456 
3632 761 1113 3754 4343 7398 5290 5191 601 
816 3654 6122 7572 8060 248 3933 3173 8901 
2157 9270 5354 7830 6575 2044 1687 3667 8804 
6702 8899 6100 7759 3007 4016 484 5821 7717 
8040 2853 2832 2604 7676 3838 2216 2310 3602 
6647 9375 7300 7264 9589 3693 3686 3918 9215 
2928 7553 6485 576 8975 3199 237 7436 5627 
7750 1107 2193 1825 4220 9425 6945 3533 2889 
380 8845 5960 5995 424 4919 6096 4419 5163 
8928 6315 2931 2996 2958 1537 2826 8086 6544 
5308 9777 3573 1231 748 5369 9204 8334 8100 
4836 2530 1014 5156 3370 7482 5966 6244 9162 
5652 7491 8586 9704 4554 2476 3003 388 5908 
7406 5925 1996 1082 9135 3481 2447 1555 9466 
7375 4962 8108 7365 211 9397 2656 2020 7697 
5047 8367 8528 4421 1948 1049 8966 9254 331 
8281 2186 8813 7091 8905 1221 2099 3420 5218 
9000 8662 7471 7353 9594 3543 437 7571 5875 
7818 3214 4400 2509 1497 2220 5708 5483 7718 
7076 351 3235 1009 6622 3760 1793 2473 8308 
821 1110 2899 3914 4859 4778 1702 4824 8850 
9141 8895 2136 1959 4449 5411 1966 4740 5725 
4742 7994 2729 4712 1134 4855 387 8725 6313 
8646 8629 3669 7735 3509 5846 4853 414 9510 
7071 6438 8819 5107 1479 3258 1671 6778 6650 
9307 6258 5433 3288 1299 2761 4964 7072 6625 
8104 6368 265 9592 4396 3553 4564 671 3508 
7714 9037 8437 7322 1395 4856 5586 5235 8664 
3249 180 4643 5707 1341 7556 6890 3122 9821 
5421 4276 3766 4355 7650 5100 2334 1259 2735 
4691 726 6400 5064 5825 1593 5083 4616 9414 
7804 5529 8686 1061 722 7140 9325 4701 9924 
9865 100 771 2762 3692 4825 6448 7014 4251 
8587 5117 7782 5608 3825 3146 7304 2467 1531 
4113 4087 4725 8674 6692 6342 5835 9949 2335 
6009 1558 8735 5442 1708 34 4167 9034 5334 
9448 9192 4647 684 1012 8360 5684 2040 1038 
1369 438 7609 8642 7015 9071 8085 5040 4553 
6747 3309 5654 9435 6714 9046 9090 2668 2938 
1580 6362 7990 2504 5322 2164 6836 7786 7581 
4602 3680 5084 6767 2015 4228 21 5063 8799 
8903 5804 8415 172 9797 6072 7045 6209 7466 
9536 951 4250 4748 2658 5745 6991 2827 1269 
3188 5931 1180 8255 6427 9651 2088 5240 5456 
9365 5495 5853 5133 886 4578 3906 7429 7756 
1982 3609 1588 7668 2626 7287 9773 423 1257 
2507 6698 8578 108 9115 5164 7430 9443 6164 
5146 4503 997 5073 8105 6481 5859 8041 3975 
2689 2940 5889 2802 7414 8423 9811 4593 4845 
1204 441 7938 8844 8076 8294 9936 2397 5245 
1976 6838 4944 6706 7525 7358 1512 1361 4517 
4746 4175 5460 3671 1509 2678 3997 9395 9336 
9630 6240 4273 7719 178 2594 9432 1252 1697 
9194 6393 7008 4625 625 3655 1474 7050 8556 
8474 6546 3916 623 491 6813 9392 2924 9442 
5152 3554 2980 1562 8757 6059 8470 6079 690 
216 3919 3421 1571 9003 1716 6518 4440 8706 
5161 156 1685 6422 4206 360 136 1787 6349 
5722 5038 6225 4029 4286 3074 3698 6286 6442 
5556 5691 6069 9794 8825 1627 8279 8223 4900 
3613 4436 8609 5793 9883 3015 6206 1515 8319 
6454 8177 2770 4588 1100 6273 8404 9352 4036 
1366 4774 3765 8284 9320 7396 5667 9353 9451 
3563 2403 8297 6817 5359 6656 7594 2541 4272 
3728 126 8013 9864 9275 1681 2616 4015 333 
3503 3134 4416 7332 6594 8648 5926 661 2798 
300 7242 6335 3120 1034 2202 3978 4070 1406 
6499 9431 6669 2758 1519 4878 8248 1442 4903 
3684 6039 7343 8596 5606 3248 1918 635 3292 
2048 2188 5994 8391 6453 846 382 4590 8661 
4932 8503 1304 9648 3110 79 2799 3411 9196 
9334 6629 7753 7857 8513 1420 4655 5978 9119 
8469 1974 482 5731 5145 8763 562 5560 3091 
2206 3098 6047 7255 9018 9492 5386 3550 4692 
4317 3043 3620 5555 3590 5655 6734 9044 608 
4965 1404 7704 8866 4119 8963 9091 3084 4481 
1373 4011 5528 5497 7362 6183 5770 2715 6833 
4818 7688 3874 5802 9778 2377 4912 1164 3071 
9143 6157 357 5767 4922 1104 2812 4213 2728 
7656 7457 1154 330 3557 995 8548 8369 7184 
4595 4397 6167 7214 8407 8712 8759 699 597 
4219 5773 6377 4182 4033 5195 2320 2075 1967 
5827 4208 2233 1311 2959 2266 256 5553 3350 
7580 8322 7411 2966 7252 8910 3009 6365 7926 
7098 8495 9902 2521 4111 197 3286 2144 6755 
8822 700 3517 3054 5899 5946 7328 3574 4717 
250 5794 8908 4990 7542 7543 6126 8621 3585 
485 241 1840 685 8188 2161 8635 5645 7791 
7689 9313 8869 6497 6226 5208 8387 5455 7839 
3329 2575 15 1328 1957 2002 9210 6588 7081 
9959 8787 867 4091 1946 7162 6918 4147 8974 
1796 5370 4987 3097 5219 2484 2323 3704 1253 
2917 2477 7092 5238 5987 7006 238 5877 4376 
2333 8892 8260 1748 561 4739 961 800 7387 
5017 6284 1249 1954 3422 3535 1083 8973 8657 
7143 4569 361 1399 3404 1863 6597 6967 5704 
5257 3612 4347 3862 6143 5319 8282 2710 2510 
3093 2270 6709 4620 5048 8960 3787 1326 8179 
4819 820 4422 1949 6595 6462 7619 8068 8798 
2132 4073 2897 9023 4433 870 2733 8926 4129 
9622 2485 2793 946 1067 8149 8801 6976 9040 
8703 5392 5885 1909 6011 14 5307 4068 7765 
5492 1979 7047 8402 3417 6239 193 1852 8429 
9642 9170 1605 7324 8564 7921 4979 8995 4980 
5909 7199 4199 2340 68 3094 3748 7999 3566 
4551 6288 4576 9008 1091 591 7805 4305 3238 
704 5621 7342 152 9096 8670 6869 1844 2134 
4840 5915 6108 3489 1153 2529 2436 731 4632 
5273 9366 5858 2824 7758 4565 688 7330 2288 
979 822 6398 2 4744 3850 6854 4563 687 
6152 828 1391 2130 9342 7928 7435 4231 924 
9358 7061 6139 8152 8852 3941 2866 6141 2871 
7307 4426 8842 8055 1679 529 7465 3694 208 
9123 5530 9239 9530 4216 2869 6670 5502 930 
2719 1732 4600 781 8206 7115 9436 7687 9646 
8871 2538 6205 668 2624 2003 8412 5124 6928 
4062 8309 7859 9502 4176 3224 4169 8096 1446 
6950 3190 4781 4763 3894 5882 6757 2265 5465 
8399 4474 4138 942 6759 8246 8832 2076 7454 
2218 1457 1393 1076 7925 6237 1931 662 2717 
3014 5996 8376 4226 5080 517 9711 1359 1029 
7985 1914 1215 2546 9137 3597 6931 8981 2747 
511 1273 6685 5197 5395 6796 4064 9218 4927 
6037 8565 6000 4628 25 1315 8162 7787 3439 
3681 2923 3219 8573 5788 5658 7188 335 3092 
6664 4850 7550 8478 2013 721 9209 7158 9010 
7427 6857 9411 3810 1762 2267 877 6161 5611 
8935 9241 7054 7876 3062 7905 6886 9310 5522 
4072 9232 189 7867 6305 2066 1035 2372 4045 
3195 4937 2936 7125 3460 1595 6876 5050 6293 
9103 6907 6316 3354 344 1536 7426 7275 1882 
3444 4752 6507 8417 4230 8326 1473 7885 3892 
5485 3320 6253 7044 7270 5629 3447 11 7182 
290 7501 8595 5680 5328 8353 2700 85 8298 
1379 220 7762 712 6829 5975 4908 4802 3723 
2251 3283 9276 272 510 5838 7659 4714 5537 
7271 5310 1501 5986 915 3774 2311 5957 5043 
7249 5724 8070 4102 2551 2622 2328 4326 4007 
2210 5252 7017 1321 6306 7638 4700 1607 234 
1943 8329 8067 6249 5289 6135 838 3755 5011 
9001 8929 9273 5547 7464 8494 4051 8468 8333 
1830 6169 6980 920 6783 5897 5642 6082 4929 
2171 8616 8775 8249 656 3904 6530 4772 2517 
5461 8015 2644 3845 3900 1124 8680 7599 6627 
3111 6519 2764 5615 530 2380 5413 1866 3757 
8483 673 1427 3640 5943 7980 1095 293 363 
4613 6053 5477 4344 1235 1516 3335 3511 5473 
1112 2528 6545 1614 3441 860 9446 7127 810 
4673 677 5800 1017 4573 301 705 5304 2995 
3782 7450 3842 1413 2968 4170 6001 1797 907 
2069 7657 1623 489 1597 1484 1266 6255 6263 
3387 7677 2053 6170 7481 3469 6107 2100 5012 
5339 5380 6551 7722 6356 7922 8614 8805 5224 
6358 1212 9187 5849 7228 7546 8942 3742 8338 
1070 5200 7552 7853 4366 5706 160 359 2426 
1552 4218 7903 3138 1074 691 7560 9072 5228 
8522 5412 2268 3271 5549 3160 4574 9185 5904 
5158 3303 355 2751 3332 5575 5840 6268 2283 
9872 7277 3706 7589 7540 6500 6419 7907 6812 
7799 3870 743 6946 6825 1421 5984 1042 1478 
2140 3455 642 813 5852 5551 5841 8112 2349 
509 7605 7204 745 9032 7970 3210 2711 6214 
8023 6820 2962 466 1207 6421 7490 4240 2505 
2887 8938 4911 1186 1798 6431 2929 88 4656 
5977 8821 5951 2666 8318 9684 6560 55 9062 
5229 3262 6731 1147 6686 1004 1496 8987 5144 
9297 9875 203 5911 898 7030 8667 4181 4924 
1878 2419 9225 6749 8803 7814 4594 6655 4192 
8750 2338 261 9754 7268 9426 2577 5128 4427 
6179 9578 4014 2348 19 1270 7109 2499 5274 
7732 4769 5139 4154 4599 9312 396 7146 6418 
3750 3326 8090 2951 9756 9978 8351 3644 5988 
6428 6790 9298 6517 3204 4887 7470 6117 2744 
8178 8583 6256 3727 1152 1570 3922 5058 8693 
4357 4534 2488 918 4071 6604 9410 4190 508 
1411 2364 1694 6919 3909 3171 2756 2055 3793 
3992 841 1292 2877 6071 1861 318 7776 7361 
4053 4720 878 1819 2892 4143 222 8769 7320 
607 1024 9970 5872 3741 2655 4805 2304 1911 
6064 5169 4118 7077 8723 4926 4271 225 2341 
4283 8967 1612 1467 3745 3457 9812 9094 9371 
2008 406 5533 2166 2791 6819 2156 2911 4527 
5247 6579 8640 1310 9719 9195 7615 2023 4730 
7561 8 9110 971 7801 1500 996 7838 5597 
823 4404 3820 205 2513 7533 9158 4088 9703 
8773 1388 83 8740 4413 7522 9782 4786 4247 
3873 1610 1696 7784 2724 2603 1541 3338 202 
1801 2324 8627 9750 345 582 4875 9002 6155 
9877 9709 830 320 2790 3594 3064 639 9380 
1510 7887 2772 4783 2387 2289 5046 8655 4607 
709 7446 3274 9405 5883 9144 2979 4935 7783 
6968 1764 4518 210 4124 9150 3081 7309 2910 
2797 4493 680 1494 3025 3833 1146 4810 1158 
8342 224 3101 7063 385 2256 128 2490 1556 
615 5390 9335 2527 2987 1811 1053 854 4253 
5653 6816 9977 9608 477 2737 586 3360 3818 
4556 8252 8087 7996 3325 4968 3276 881 7602 
9853 7417 8128 5861 1754 2704 1278 1598 2314 
4866 377 3465 1387 1033 7034 8947 4604 3951 
2480 389 2564 6512 8536 6587 3908 2449 5241 
8001 3353 7160 4052 2258 6548 1527 3407 6841 
4210 3306 1483 1287 1690 3196 7816 4401 1820 
350 426 8709 4989 4186 3208 3675 3864 1063 
6784 5776 8797 958 3330 383 2511 4767 4023 
3100 6578 3528 4382 6061 3480 9772 917 471 
2195 7562 559 1636 850 1338 6529 5067 9460 
1810 9982 6035 6908 3 1329 3449 5695 4221 
2214 2492 1961 1165 1332 9692 4046 5819 9827 
1187 2878 8694 2024 3722 1210 9263 62 5468 
3515 1582 58 7216 417 5097 9629 3089 2757 
4411 689 9886 9415 9163 1011 2190 3346 8742 
9712 9658 574 1786 2646 7942 3416 9673 7883 
2049 3561 4117 7090 3650 9028 1615 9656 2135 
622 2054 2253 4314 2773 9947 632 8420 2176 
1135 9701 4420 2944 1313 7128 9726 206 7339 
2886 1991 1683 3253 8921 4236 1905 3610 1226 
595 8122 3431 4703 2994 875 578 927 2559 
9213 4207 5162 473 4535 2822 862 2396 6231 
175 2834 2545 3034 9178 4026 1758 2016 9339 
3295 4789 7412 9621 818 5243 1712 525 600 
9234 6430 801 2142 3730 9980 1984 5272 641 
1521 81 299 430 9940 6992 2347 4622 4310 
6175 9728 3797 3521 9654 67 7815 7151 1875 
8765 276 501 9916 9685 1240 3688 2787 8125 
5348 3011 8673 3595 4901 3507 5620 4387 1026 
2004 2560 4477 3028 7709 3167 2022 1280 3339 
3185 9538 8064 287 2433 2264 1093 984 3490 
746 9581 2308 5935 3053 3743 2701 4704 738 
7516 6826 8397 2112 3077 4365 4854 435 3966 
65 4528 7282 8490 9065 6204 9957 6748 1829 
1654 4507 3336 6460 5309 8486 2429 3804 3021 
1417 5350 9817 9157 5763 2108 4145 107 3794 
538 5256 6382 1763 3848 433 2105 5662 2442 
1384 2643 537 2005 676 707 8781 2828 3197 
288 8764 1812 4513 2977 7740 3016 3522 840 
4412 3415 5361 9584 1179 6793 1543 2585 2228 
93 8016 4223 337 8976 6344 9788 457 9085 
4110 799 8829 24 7512 4914 1092 3564 458 
9688 6683 1258 303 4080 1897 7983 9689 9663 
1118 1611 1499 186 3432 9971 1572 1334 4399 
3241 4356 2557 2525 310 7781 146 1573 7777 
425 3351 4723 1368 4107 647 7169 7661 3666 
1907 4200 716 4731 3001 9997 5129 7156 4736 
4478 9705 8710 2882 57 2520 4521 9373 8005 
5617 6395 1234 4148 2261 985 1870 6682 1550 
1660 539 1279 5647 7508 604 112 5439 1713 
7433 9554 1816 1200 1587 2983 1449 1919 9522 
5610 1039 9931 372 4059 9290 2237 5450 297 
1665 4209 1109 5090 9546 3954 9549 492 1581 
183 3542 5140 9200 6985 9179 1714 3963 4917 
2043 2820 7235 3719 8006 5018 5358 9894 9645 
493 2252 7389 9810 5351 9256 1418 9348 2722 
33 1585 3731 9803 3635 2398 2084 4297 2482 
1799 9903 2547 7669 1008 6502 666 8637 4770 
1578 9444 1818 3165 3052 2681 6172 9954 5474 
2287 2638 2489 7743 7958 3176 4846 6162 7064 
6319 9582 788 4921 6403 6394 8045 889 7672 
3377 4610 3637 5086 8141 7493 825 1637 7142 
9555 5401 9659 3746 481 627 4567 7180 8833 
9005 2555 9472 7386 6078 528 3771 3331 8758 
7388 6549 7185 3149 1088 4539 1465 5983 1003 
7822 4967 2226 3887 7439 2299 9921 2894 8932 
6652 3086 1895 992 6060 782 9406 6802 9671 
2825 2875 921 1782 2263 6958 9966 3123 129 
2365 9911 9401 8582 4754 6414 7024 7455 2706 
1086 5791 3540 5836 3233 7737 9543 2942 198 
5283 296 9985 9265 750 7477 9610 7239 7423 
3473 8292 7576 9816 4999 868 3998 3080 8377 
6472 1920 548 7943 30 90 5434 6852 4197 
6975 3943 1229 9561 4583 4623 6719 6101 7445 
5613 1052 4668 7170 5186 9420 77 9882 3467 
1917 7707 1485 3096 598 3529 9564 5406 9697 
5953 3305 6681 6048 6318 3584 9171 7172 2768 
4928 260 3588 6495 6906 5052 4453 1783 5903 
4624 9859 4475 4538 611 398 6067 8532 6834 
4380 2356 4639 9116 3186 5367 9248 1574 2192 
8433 5963 2841 9724 353 7236 7462 4690 4572 
7005 9747 6130 5749 504 3384 3136 6010 3376 
5730 5255 1037 9895 5741 6470 4505 6977 2213 
4951 9662 8110 9600 6680 167 2269 8400 5276 
5230 190 5640 5631 774 9729 5212 2363 1367 
2215 5922 5034 8718 2680 104 6296 7415 4012 
7440 9696 8783 6998 5096 1700 7260 9124 5509 
1549 4439 3049 8106 8877 9164 5756 3836 7460 
7904 9520 2039 9998 6201 9965 5901 444 7584 
7702 9142 1777 6446 9389 4123 7133 9774 6077 
9952 8251 7554 2718 6279 8352 2567 5870 9746 
9943 5333 6019 9198 6142 8287 2207 8779 4054 
8034 5464 442 6504 2376 9479 6283 6023 5614 
8277 1769 6043 5440 7505 9550 1089 3942 20 
9098 9537 1126 9789 4459 1567 9220 4043 6367 
8021 439 6827 9842 8590 9246 8972 8539 8671 
1283 7495 9967 9856 6280 7359 634 7111 8270 
7888 6479 8579 7691 9851 8808 5423 7734 904 
758 9439 4165 8493 1159 5069 9698 9790 6440 
2502 1263 3200 5065 6739 5398 9056 3768 6552 
9972 1241 8550 2058 1138 9780 4945 4078 8444 
6369 9497 7186 9332 5636 6955 7573 9345 4265 
7626 9981 2241 9557 7746 9132 4298 8441 9804 
6174 7655 4940 1850 5638 6098 7371 8211 5021 
8931 8577 5010 9579 6068 780 6146 7093 8043 
9521 5814 8711 6823 5122 5928 9881 7837 2912 
9551 7892 6437 2235 5471 9261 3866 8268 9933 