# vtk DataFile Version 4.2
Generated by LIGGGHTS
ASCII
DATASET POLYDATA
POINTS 10000 float
-0.0185581 0.000896949 -0.0366764 -0.0187945 0.00330166 -0.0365583 -0.0182968 0.00500839 -0.0368084 
-0.0186442 0.00918822 -0.0366365 -0.0185346 0.015698 -0.0366884 -0.018074 0.0174398 -0.0369116 
-0.0187501 0.0191895 -0.0365756 -0.0201345 0.00099336 -0.0358299 -0.0209918 0.00249611 -0.035338 
-0.0199786 0.00448217 -0.0359212 -0.0208873 0.00593731 -0.0354029 -0.0190691 0.00597159 -0.0355106 
-0.0193458 0.00758867 -0.0362371 -0.0208875 0.00799389 -0.0354009 -0.0205819 0.00989171 -0.0355739 
-0.0178666 0.0106459 -0.0359363 -0.0204321 0.0116874 -0.0356746 -0.0177421 0.0123661 -0.0354324 
-0.0211271 0.0133204 -0.0352601 -0.0192265 0.0128431 -0.0363287 -0.019854 0.0144946 -0.0359893 
-0.0181276 0.0141067 -0.0356707 -0.0204252 0.0161719 -0.0356733 -0.0213869 0.0177476 -0.0350997 
-0.0192914 0.0175757 -0.0355957 -0.0203279 0.0190528 -0.0357254 -0.0225909 0.00102323 -0.0343429 
-0.0208091 0.000897578 -0.0341707 -0.019026 0.000892945 -0.0344216 -0.0198581 0.00240756 -0.0339472 
-0.0183539 0.00242839 -0.0350583 -0.0222284 0.00354894 -0.0345732 -0.0205211 0.00406144 -0.0342702 
-0.0183828 0.00435863 -0.0350993 -0.022403 0.00533125 -0.0344645 -0.022826 0.00706837 -0.0341847 
-0.0210408 0.00695762 -0.0339407 -0.0193098 0.00739912 -0.0344514 -0.022134 0.00903176 -0.0346323 
-0.0190841 0.00915937 -0.034898 -0.0190437 0.0111435 -0.0346872 -0.022008 0.0115687 -0.034718 
-0.0201642 0.0123973 -0.0340578 -0.018648 0.0133542 -0.0341273 -0.0232363 0.014417 -0.0339028 
-0.0201331 0.0143932 -0.0342198 -0.0216417 0.0150537 -0.0349415 -0.0188181 0.0157097 -0.0349205 
-0.0227235 0.0163117 -0.0342479 -0.0209054 0.0164382 -0.03397 -0.0177273 0.0170937 -0.0345754 
-0.0228828 0.0191423 -0.0341415 -0.0210861 0.0192016 -0.0340864 -0.0188093 0.0192027 -0.0347782 
-0.024056 0.000892059 -0.0333252 -0.0247299 0.00247027 -0.0328107 -0.0230231 0.00247338 -0.0333768 
-0.0177496 0.00210236 -0.0334044 -0.0239827 0.0039917 -0.033385 -0.0213261 0.00298113 -0.0330884 
-0.0191682 0.00383351 -0.0331044 -0.0180476 0.00519011 -0.0334651 -0.0238466 0.00577589 -0.0334748 
-0.0221552 0.00606737 -0.0328534 -0.0197313 0.00567589 -0.0338702 -0.0251391 0.00658184 -0.0325249 
-0.0180131 0.00698528 -0.0332768 -0.0241445 0.00788041 -0.0332646 -0.0219998 0.00818515 -0.0330513 
-0.0204212 0.00863501 -0.0337743 -0.024694 0.00960142 -0.0328603 -0.0193469 0.0100095 -0.0333397 
-0.0177679 0.0091925 -0.0336726 -0.0231674 0.0101265 -0.0336536 -0.0211198 0.0102839 -0.0338392 
-0.0236661 0.0118538 -0.0336098 -0.0221047 0.0115042 -0.0327953 -0.0186039 0.0118517 -0.0331012 
-0.0219716 0.0130437 -0.033705 -0.0249225 0.0144665 -0.0326881 -0.021957 0.0144748 -0.0326353 
-0.0235037 0.0155988 -0.0325744 -0.0194345 0.0157214 -0.0332385 -0.0251836 0.0162323 -0.0324838 
-0.0238005 0.0175517 -0.0335148 -0.0220151 0.0177427 -0.0334188 -0.0198569 0.0179 -0.0339198 
-0.0184047 0.0174567 -0.0329478 -0.0243684 0.0192033 -0.0330978 -0.0188438 0.019202 -0.0329824 
-0.0258039 0.00114726 -0.0319936 -0.0240892 0.000890627 -0.031534 -0.0224285 0.000899126 -0.032559 
-0.0206399 0.000913215 -0.0323815 -0.0188356 0.000897096 -0.0326389 -0.0266452 0.00266181 -0.0312933 
-0.0231805 0.00243438 -0.0315905 -0.0197333 0.00244292 -0.0321143 -0.017749 0.00224098 -0.0316182 
-0.0256878 0.00396135 -0.0320886 -0.0239414 0.004063 -0.0315914 -0.0224127 0.00431274 -0.0325726 
-0.0206328 0.00475294 -0.0326213 -0.0236984 0.00584343 -0.0316778 -0.0189555 0.00544094 -0.0319311 
-0.0265121 0.00685838 -0.0314109 -0.0224597 0.00712418 -0.0314443 -0.0200078 0.00678682 -0.0324873 
-0.0256402 0.00826255 -0.0321215 -0.0232911 0.00871619 -0.0319242 -0.0207985 0.00820193 -0.0317117 
-0.0190166 0.00835918 -0.0326956 -0.021901 0.00979909 -0.0322677 -0.0200191 0.00982098 -0.0316951 
-0.025664 0.0109849 -0.0321072 -0.0236832 0.0108795 -0.0321057 -0.0179925 0.0101515 -0.0321739 
-0.0266187 0.0122869 -0.031317 -0.020325 0.0113402 -0.0326235 -0.0252678 0.0127072 -0.0324249 
-0.0234024 0.0132655 -0.03253 -0.0218248 0.0129283 -0.0316924 -0.0204451 0.0135097 -0.0326825 
-0.0186838 0.013504 -0.0323361 -0.0264234 0.0154024 -0.0314783 -0.0204157 0.015209 -0.0318307 
-0.0179168 0.0151231 -0.0324545 -0.0218316 0.0162466 -0.0324475 -0.0190583 0.0164139 -0.0316335 
-0.0240535 0.0174171 -0.0317464 -0.0222984 0.0176811 -0.031485 -0.0204559 0.017397 -0.032298 
-0.0256965 0.0185453 -0.0320812 -0.0237997 0.0191628 -0.0313911 -0.0223342 0.0192065 -0.0324302 
-0.0205359 0.0191995 -0.0323743 -0.027162 0.00089765 -0.0308514 -0.0254327 0.000893347 -0.0302557 
-0.0224421 0.000962104 -0.030764 -0.0206246 0.000895264 -0.0305844 -0.0186524 0.000894216 -0.0308582 
-0.0281561 0.00207949 -0.0299488 -0.0248837 0.00241233 -0.0310292 -0.0213991 0.00226209 -0.031447 
-0.0194787 0.00240385 -0.030334 -0.0255301 0.00390902 -0.0303029 -0.0222252 0.00376963 -0.0308684 
-0.0204416 0.00391665 -0.0310441 -0.0186831 0.00375462 -0.0313752 -0.0270125 0.00465733 -0.0309818 
-0.0253714 0.00549639 -0.0311206 -0.0216139 0.00540719 -0.031275 -0.0200165 0.00571627 -0.0305053 
-0.0179278 0.00616291 -0.0304509 -0.0278178 0.00730809 -0.0302658 -0.0243269 0.00745395 -0.0311831 
-0.0189814 0.0074271 -0.0311669 -0.0262584 0.00834142 -0.0304351 -0.028003 0.00913114 -0.0300833 
-0.0268058 0.00992827 -0.0311587 -0.0248337 0.00976813 -0.0310811 -0.0230509 0.00998558 -0.0306841 
-0.0213271 0.0094748 -0.030526 -0.0185513 0.00913178 -0.0308077 -0.021727 0.0111352 -0.0310791 
-0.0279579 0.0124317 -0.0301254 -0.0249286 0.0115248 -0.0305619 -0.0233614 0.0122754 -0.0310304 
-0.0200794 0.0118986 -0.0309415 -0.0182137 0.011736 -0.0313556 -0.0248136 0.0133041 -0.0307995 
-0.017647 0.013368 -0.0308696 -0.0272108 0.0139321 -0.0308029 -0.0230504 0.0144451 -0.0312186 
-0.0200205 0.0136952 -0.03095 -0.0186499 0.0148532 -0.0308472 -0.0278828 0.0155512 -0.0302048 
-0.0246573 0.0152319 -0.0310889 -0.02566 0.0171227 -0.0309915 -0.0230915 0.0161999 -0.0308425 
-0.0211679 0.016468 -0.0307945 -0.0273986 0.0174247 -0.0306336 -0.0195311 0.0180758 -0.0309086 
-0.0176718 0.0174929 -0.0312782 -0.0270547 0.0191651 -0.03094 -0.025326 0.0191994 -0.0304426 
-0.0222101 0.019207 -0.030551 -0.0181941 0.0192073 -0.0313065 -0.0294036 0.000899084 -0.0287209 
-0.0274789 0.000898895 -0.0287705 -0.0237743 0.000898382 -0.0295569 -0.0218107 0.000900288 -0.0290836 
-0.0194295 0.000897255 -0.029249 -0.0174027 0.000914881 -0.0295646 -0.0264886 0.00259507 -0.0295015 
-0.0247131 0.002401 -0.0292445 -0.0229906 0.00253077 -0.029803 -0.0178957 0.00274823 -0.0295498 
-0.0282074 0.003874 -0.0298893 -0.0211301 0.00284962 -0.0297707 -0.0233871 0.00495949 -0.0301389 
-0.0220797 0.00423885 -0.0291389 -0.0198889 0.00411882 -0.0293484 -0.0181995 0.0045046 -0.0298176 
-0.028418 0.00566236 -0.029697 -0.0266619 0.00599899 -0.0298489 -0.0249932 0.00534532 -0.0293731 
-0.0218337 0.00596254 -0.0295891 -0.0252098 0.00711596 -0.0295891 -0.0234474 0.00672176 -0.0297998 
-0.0207799 0.0073073 -0.0301501 -0.0190778 0.00707128 -0.0294189 -0.0290184 0.00797869 -0.0291027 
-0.0272545 0.00813879 -0.0287881 -0.0242959 0.00865012 -0.0297894 -0.0225699 0.00826687 -0.0300739 
-0.0198005 0.00870815 -0.0295821 -0.0176006 0.0080499 -0.0297239 -0.0261759 0.00961108 -0.0291718 
-0.0287326 0.0109806 -0.029399 -0.0266242 0.0111914 -0.0298939 -0.0245672 0.0104083 -0.0292051 
-0.0227856 0.0105405 -0.029002 -0.0195572 0.0104216 -0.0300672 -0.0216526 0.0118581 -0.029438 
-0.0198886 0.011936 -0.0291595 -0.0182054 0.011507 -0.0295756 -0.0262198 0.0129287 -0.0296855 
-0.024017 0.0125339 -0.0293833 -0.0224922 0.0133681 -0.0299015 -0.0207867 0.0134767 -0.0293452 
-0.0285681 0.0140218 -0.0295466 -0.0258387 0.0146746 -0.0298539 -0.0239479 0.0143873 -0.0296659 
-0.0291668 0.015613 -0.0289601 -0.0245903 0.0160543 -0.0294985 -0.0219831 0.0151114 -0.0299328 
-0.0201843 0.0152016 -0.0299862 -0.0174882 0.0160726 -0.0301976 -0.026411 0.0163508 -0.0295587 
-0.0191505 0.0166671 -0.0298602 -0.0287788 0.0174048 -0.0293506 -0.0243016 0.0177506 -0.0300041 
-0.0225267 0.0176541 -0.0297021 -0.0177497 0.0177339 -0.0295006 -0.0283802 0.0191923 -0.029724 
-0.0266222 0.0191999 -0.0291957 -0.0242145 0.0192052 -0.0289671 -0.0205602 0.0191923 -0.0298373 
-0.0187776 0.0192026 -0.0296035 -0.0257117 0.00110807 -0.0284991 -0.0301621 0.00253957 -0.0279229 
-0.0283952 0.0023678 -0.0282044 -0.0267116 0.00272528 -0.0276642 -0.0234234 0.00239242 -0.0279921 
-0.0216286 0.00242255 -0.0280954 -0.0197979 0.00251232 -0.0285475 -0.0239433 0.00394834 -0.0287624 
-0.0294835 0.00404736 -0.0286337 -0.0277154 0.00468686 -0.0283642 -0.026038 0.00409925 -0.0286014 
-0.029672 0.0058258 -0.0284245 -0.0263097 0.00581529 -0.0281038 -0.0235441 0.00565306 -0.0283605 
-0.0204468 0.00634532 -0.0285173 -0.0188433 0.00554413 -0.0285042 -0.0279527 0.00653555 -0.0281948 
-0.0257981 0.00752803 -0.027942 -0.0240347 0.00738487 -0.0282407 -0.0222657 0.00736053 -0.0285544 
-0.0173456 0.00653472 -0.0287942 -0.0298608 0.00954994 -0.028248 -0.0278448 0.00978362 -0.02841 
-0.0247934 0.00900488 -0.0281084 -0.0229981 0.00895343 -0.0281907 -0.0213391 0.00944283 -0.028738 
-0.0182823 0.00958679 -0.0290887 -0.0214666 0.0110067 -0.0278708 -0.0196723 0.0103898 -0.0282807 
-0.0301683 0.0112877 -0.0279102 -0.0274515 0.0117347 -0.0283944 -0.0255679 0.0120018 -0.028292 
-0.0238824 0.0114797 -0.0279395 -0.0290576 0.0125336 -0.0285725 -0.0276568 0.0134569 -0.0279402 
-0.0243226 0.0132137 -0.0277493 -0.022537 0.012657 -0.0280938 -0.0191049 0.0134862 -0.0287108 
-0.0174147 0.0130483 -0.0291231 -0.0298933 0.0140764 -0.0282177 -0.0259021 0.0139671 -0.0282012 
-0.0227141 0.0144251 -0.0283586 -0.0303671 0.0160098 -0.0276863 -0.0272577 0.0150836 -0.0285865 
-0.0244351 0.014995 -0.0280567 -0.02101 0.0149892 -0.0284122 -0.0185569 0.0151539 -0.0290821 
-0.0286211 0.0167548 -0.0276883 -0.0268324 0.016671 -0.0278431 -0.0243495 0.0167807 -0.0278789 
-0.0229355 0.0161547 -0.0287974 -0.0211026 0.0166904 -0.0290151 -0.0195367 0.0162972 -0.0281045 
[...]
POINT_DATA 10000
FIELD FieldData 7
id 1 10000 int
3240 683 3247 4566 1396 9385 9819 8263 2805 
1316 1023 6439 2916 4545 6510 3988 2160 8306 
1596 1975 1577 7137 3672 255 4504 4109 6106 
6959 9506 6376 2843 2173 3972 9514 6461 3141 
6994 5171 4407 1378 8288 2409 7144 3921 2034 
2587 4470 9989 2947 1583 6937 2606 8626 3717 
7240 150 2032 7354 3770 1045 9990 3835 4160 
4910 4761 6883 8610 2679 584 3073 1469 8699 
7965 9905 790 3412 5263 5886 1659 3150 4027 
9809 7395 3716 109 8475 2905 9197 8046 7220 
9302 6849 7633 5187 4997 2149 3316 7915 5942 
1185 3474 679 568 3349 2469 4275 3665 1711 
736 4452 9655 8073 4791 1947 3979 4864 6213 
3496 5916 92 2769 6897 9464 9708 2249 8875 
7643 4384 4974 5422 8295 6182 1075 950 9657 
5692 4794 2401 8593 6397 6558 495 145 8547 
2552 3004 3268 5742 5329 2539 9793 1046 3799 
2965 3454 5697 6070 1731 4821 6814 3191 1889 
8371 4958 3282 4804 3715 7646 8049 6054 1507 
9986 2636 4097 6941 7639 2519 2985 4350 6556 
6483 2208 9577 6351 6858 6624 9612 9599 5295 
2671 1380 2498 7733 1443 1072 1535 9029 6247 
1284 4849 847 2816 6779 7380 9812 892 4156 
4543 5735 7294 8707 8818 3270 3920 965 6923 
4699 6613 941 988 5415 9640 8510 9445 1692 
1405 6044 1662 7988 9160 6065 914 2766 7945 
4233 5225 7870 2082 6693 7011 9059 5088 7763 
9099 5258 7148 4319 1297 7341 9802 637 3259 
953 9879 66 8408 8358 3272 2420 2516 1790 
4359 1913 99 9632 1210 7136 8999 2991 2595 
819 5865 3947 2885 5964 5637 3739 6925 4633 
343 4334 9372 526 2465 9643 6862 9721 8205 
5316 3144 7789 8301 7802 2611 5619 3547 3409 
706 2119 8957 6764 6055 2726 2362 2876 8058 
8679 5281 5826 1885 5234 8827 6878 4710 28 
8977 8588 8450 7352 9666 1962 6476 1667 2771 
3923 5831 5118 8988 9935 7766 7174 4187 6711 
3088 5828 4130 2501 8061 8675 3457 3234 2932 
6761 5699 7948 3357 7351 5204 7901 1400 7356 
6799 4122 4601 8065 1119 3491 834 6292 2685 
3308 926 9077 1851 4463 5905 7917 1618 9973 
5486 1058 4971 5176 2061 1408 550 3418 589 
5710 4323 144 6282 6741 4324 3652 3358 843 
6350 7595 1877 2045 2466 1219 3045 6057 7631 
912 8473 4299 8738 663 9279 8729 2345 1099 
4041 9271 6710 7872 4679 9180 4646 3734 9447 
9598 9092 2660 797 2554 2181 1066 1950 4756 
7893 7748 6429 5755 7912 3648 9277 2745 4405 
9713 6312 1002 9025 7976 2549 4144 8197 1995 
964 2810 1547 9596 7369 5098 2760 3434 5444 
1155 4048 5472 3737 1699 6246 3834 3025 8940 
9078 5812 5940 4970 2021 755 4963 1298 3623 
8462 1375 9617 7393 6165 3829 9734 4603 81 
7433 1471 6635 1013 9806 6028 8458 993 3626 
6290 9362 3821 4695 9051 7141 8558 7774 7621 
2874 4678 6750 7909 8146 1425 8511 1696 7869 
4559 1025 8266 4425 4266 6846 6420 1254 5948 
5565 80 4734 7046 5616 4178 8168 6457 5104 
3174 6885 3058 1939 3764 6821 9771 9720 7494 
4291 2483 4188 9252 7713 9824 72 7625 8201 
2166 9770 4222 7003 6310 8023 5302 7932 7373 
2545 5724 5716 4382 7390 8328 376 8815 7531 
6092 1239 440 2316 6217 8985 9516 6401 1438 
1439 5743 4168 5967 4227 57 9899 6954 8864 
2818 3182 9585 5954 787 4047 1860 2872 1891 
2412 8571 2844 1575 8836 9468 3291 4883 9822 
181 8018 1077 7370 2354 5493 9763 6662 7292 
9919 2856 9878 1331 2472 8623 4830 4308 3934 
8269 5656 4529 3546 3311 1291 7884 2278 1684 
664 6763 2315 1007 2297 7971 2418 9563 9730 
8555 4035 4941 9892 5664 4598 515 4153 6109 
2496 7920 9057 5894 6102 9956 2564 2103 1584 
8059 5839 56 7793 5625 7968 313 7469 2382 
4246 1020 2282 7108 812 1302 6363 9152 4915 
1350 4737 6359 2535 7563 5076 9964 4274 9188 
7951 346 602 3090 142 3813 4257 8456 793 
5023 3630 7614 8393 1599 3487 5270 8608 9075 
6352 6831 6882 802 5712 470 2114 7820 9408 
2014 5833 69 3221 8834 7103 6118 3926 724 
3406 901 2319 4195 9437 9775 962 649 2454 
3745 5306 3841 5277 317 9041 2561 3849 5702 
2904 4172 2115 6717 4215 1224 8968 882 1858 
3678 2268 1422 3169 4311 7276 2950 1628 6972 
8796 6938 8165 3946 8392 9625 1208 4255 3601 
3763 6119 6915 1403 9740 6580 5817 5754 2177 
2806 7486 3056 1683 2857 1733 8544 1823 6542 
795 3361 5185 6222 2227 88 221 5388 9946 
2468 7349 9324 6678 7134 3851 9634 8839 1397 
4811 5781 6987 3682 7250 3927 3215 6857 7232 
6777 1789 4394 4430 8805 4555 6633 9235 5797 
9901 530 7564 948 5077 2091 2890 994 6964 
5199 3534 400 3845 6451 2395 505 8244 8019 
972 657 6515 3524 5114 5344 2374 8327 7048 
8823 2647 1409 2036 1778 4268 9212 1798 4556 
1436 2664 2895 3512 3593 8155 7963 3264 4344 
9904 9739 1048 2194 1290 4488 2935 6200 8094 
9193 7964 9291 7846 1476 5110 6445 1285 6803 
7798 9049 1824 5991 1756 3636 6373 2926 140 
2118 512 6075 1901 2952 383 4869 5126 5049 
6436 1770 7448 111 4124 8557 4166 6018 3403 
8584 7464 5914 373 1802 6557 418 2783 6612 
4444 8704 2050 5499 9540 1053 2893 1342 8213 
3818 3319 4484 564 7874 9095 9154 3867 2277 
8091 497 1054 5653 2244 900 6133 5452 5372 
535 1641 4661 7860 9039 619 9181 6825 2913 
8717 9433 7476 4525 6127 7779 1222 2744 3095 
5013 6990 887 5680 1755 1057 9186 5939 9127 
294 9244 4248 2361 9073 3832 6347 7761 9266 
956 1313 607 3231 5824 6177 7829 5463 1826 
3567 2438 2943 8476 3646 5371 8525 3495 5339 
4179 9286 4860 547 7629 1317 4877 6261 3352 
1718 8659 618 6684 8448 7463 2840 9355 2254 
169 715 6566 7492 3736 7473 1176 8399 3424 
8691 5250 2589 2073 4519 5851 323 2742 651 
4757 378 3685 1171 852 5000 4300 119 702 
9909 2862 9158 4437 4552 919 6875 9993 3425 
4093 305 6704 4672 7514 572 3962 6568 796 
7168 3392 5525 8014 6085 159 4313 8136 8620 
5748 3856 3565 6364 2716 3778 6538 3287 3044 
2692 5177 3140 6000 4002 4067 1788 8860 5605 
8296 8129 254 1906 6076 1775 7648 8222 6976 
463 3068 8666 5167 118 89 4924 1494 5035 
7025 7409 1884 2179 8959 5211 3812 3332 8341 
434 1389 1845 5843 2936 6340 1151 2500 6659 
4191 2155 8917 1310 932 8979 1500 2274 9781 
9393 6596 6665 881 3148 8331 3400 9489 9409 
2986 6865 4392 5711 3192 8422 9356 6765 728 
980 1992 4608 805 8355 5552 6525 2566 4038 
7998 2796 4390 9058 2962 3594 519 8953 6863 
9603 2694 7010 2848 7284 7487 7610 131 7527 
2295 5201 7150 4983 792 3831 872 6845 7810 
3476 5024 6646 5437 4666 8955 6740 1717 1661 
4435 5689 5002 1937 3008 3154 2518 7478 1722 
9737 7070 2343 6086 1894 5517 6466 412 7154 
590 219 6611 3414 8809 5923 7853 940 3275 
422 1264 682 2506 8401 4551 2563 5813 3798 
2199 9867 7836 4448 1085 5368 2990 8909 4629 
2041 4906 396 2475 1530 1856 4278 1428 7016 
6884 2815 1278 5253 7312 4612 2743 8483 3714 
6565 1904 6148 9257 1747 9020 8477 4884 7555 
7954 6891 5630 981 2999 2693 7416 9407 6730 
2480 6910 6570 8115 2321 3824 1437 3893 6800 
5736 9738 4139 6322 5644 1498 3796 9399 2736 
5952 8304 6275 4438 6523 5642 9470 544 7530 
1108 4570 3520 5125 1761 73 7858 1080 40 
4683 2995 1676 1036 7729 2493 7929 3819 8402 
94 581 2669 3184 9103 9200 1286 8044 5320 
2930 3477 2026 3057 503 8309 2217 9477 8992 
9262 263 4839 8948 177 7935 8256 908 7617 
166 3579 2107 7606 7681 6743 4381 2792 9211 
4905 3876 1900 9808 9679 3302 8017 2683 5810 
5376 8107 124 1031 3611 826 4360 7792 551 
8497 9102 5391 5634 7330 6014 2062 8330 5896 
6 7592 7644 3621 1817 1416 4533 8362 1592 
3996 7205 2414 2336 6830 507 8283 7195 694 
2456 5054 3960 7007 8890 7407 569 8237 8278 
6939 4239 844 2713 4264 8889 8361 612 2410 
3899 4755 8302 6695 1785 1271 558 5441 2352 
656 1916 3373 3995 6406 6607 5412 3362 405 
267 7871 2746 2057 3209 138 355 23 9386 
1295 7013 6158 5818 7539 4018 8198 8837 9172 
5540 7316 2833 3640 8326 2648 9487 4738 9813 
3112 2184 9182 7926 295 3928 1871 3541 1163 
5395 3083 2786 2688 8419 653 2973 3324 5675 
8715 5267 2025 6758 8724 2491 3033 3608 6423 
6913 8488 2989 2211 3571 324 4575 7603 5213 
7428 5399 399 3158 3267 8647 6960 3368 9174 
7074 5796 4492 5323 2242 1114 3355 9388 9474 
4055 4198 4181 9140 4316 8969 3343 1745 5337 
7741 4258 1005 8560 1260 3814 8053 6917 4427 
2303 3537 8523 4547 8591 9381 1666 3811 2290 
1193 7975 599 8212 4259 1032 9839 2346 7524 
3696 968 2339 6066 1835 5950 5670 3589 8314 
9876 8218 1768 163 3065 6027 9221 4768 1123 
2918 5596 5580 5863 2248 409 2306 966 2196 
5215 6108 2581 8466 314 2984 5862 6905 7405 
7622 2125 1475 1121 3168 5467 1352 8259 8739 
1849 7461 6224 3159 3254 8118 7221 7459 4908 
2839 7033 9760 3664 2809 545 2408 8271 3880 
204 4202 5194 7687 5066 1720 328 1868 893 
1896 3785 7817 9785 3890 500 740 9368 5723 
7314 5564 147 4676 6606 4476 2676 3773 3700 
7201 7653 8656 3405 5254 1041 8481 103 6126 
939 6789 5384 9258 4793 4895 621 3888 1172 
1348 7194 8728 1355 3752 4468 5643 6742 1482 
9419 6688 837 9519 45 2129 7288 3104 4663 
3334 7027 6524 9682 6196 3780 5505 5868 2881 
2030 4509 6168 3616 7993 833 8633 4161 8265 
1189 8698 4100 1477 7243 4090 4753 5941 2197 
5945 8172 498 1670 6408 8982 8467 214 2649 
2072 967 6147 3000 6496 4939 5020 523 6619 
4693 5285 201 2860 4333 5144 7598 2867 7548 
153 4548 4142 2964 7224 6137 620 7577 6663 
8232 3036 9893 9463 5314 3371 2236 4330 1691 
3556 7257 4103 814 7308 6853 2243 3125 8390 
5271 6671 4338 5534 1669 5259 6859 1027 5538 
8915 8686 4385 1629 4106 3569 8743 4893 909 
7364 6614 10 9462 2029 2651 7995 3493 976 
9611 7315 1445 7129 9067 2384 5844 4800 6997 
2284 897 9939 4417 6776 1927 1621 9887 3701 
5811 6143 4512 3156 9678 1742 1105 7451 278 
4741 7155 120 9237 1444 5585 6016 7468 7088 
4293 5311 703 5690 1495 1807 4930 8491 629 
3207 8398 7102 8689 3105 6513 286 6267 7868 
7069 4428 5679 1864 5834 753 4698 5312 3181 
6063 4867 7344 3129 2609 7317 2653 8681 4777 
6211 7378 3121 8443 1062 3505 1846 1136 3673 
2532 9167 4614 1232 5032 1634 6631 3993 496 
8132 7956 8472 2914 8226 1834 9184 4727 749 
8482 7962 5357 4784 8033 7519 6467 8143 4743 
6922 4834 4128 1050 8035 1726 8500 3385 4998 
8119 8454 6843 1672 8153 6131 6623 9490 1160 
2375 1744 7145 9779 6324 5476 7848 4028 3383 
7345 6389 6482 7742 1182 4017 5121 6387 6638 
3907 9391 4920 8527 7706 5029 3451 2172 2174 
3466 7794 518 7518 9755 5007 7123 6801 3115 
9151 1772 9379 5772 5998 7424 4085 8807 3924 
5732 319 1832 9430 9296 7139 1784 217 2731 
5709 7772 2128 8316 7263 7363 3783 9843 1451 
3484 5226 2106 2373 6087 9106 5061 4125 9486 
6348 9461 6603 4331 6456 1309 2788 1125 2925 
902 4862 408 5294 2880 37 9294 9668 2784 
6574 8594 1330 4134 259 227 6898 874 1873 
975 5244 3575 9076 8970 4586 5155 1356 6184 
3518 5151 4665 6099 580 4627 6826 9560 2154 
5237 7978 4523 3883 8886 7382 5266 6388 4001 
6979 8048 5545 5523 4876 1452 384 429 5599 
8007 6139 6115 2394 4204 6380 436 2988 923 
8505 1874 2245 1001 9305 6620 2583 340 2920 
8305 6895 9280 3559 9512 6241 6856 6005 4858 
1068 8030 5317 6049 6564 3504 9097 824 3578 
7079 9699 5331 277 1880 1552 1491 3961 3445 
4531 8941 6751 3758 9660 6426 2621 3398 1740 
4827 2231 5261 5451 1349 53 713 7821 1503 
4879 2906 1533 1972 9301 4580 7727 8196 7037 
4466 9807 462 8785 2830 7116 1617 2234 7701 
8079 393 270 4485 935 5445 9930 9108 1872 
1862 5890 8214 692 2714 2607 9676 9861 8649 
1166 4032 3884 38 2147 3299 3298 4480 6156 
6615 7043 1268 4787 4631 6444 7183 4707 1458 
6329 9441 4374 4549 2180 2038 6198 8036 8455 
253 3198 2440 4211 2143 6953 1749 6840 7238 
2094 6986 2042 567 8435 6234 8272 280 7900 
1952 3059 3805 3788 2909 5016 8925 3879 3230 
8676 638 5232 6867 6621 5715 1964 5278 6569 
5056 9885 891 6339 1056 6643 3464 2001 4751 
2102 1743 9541 4483 4289 7340 3925 8133 5027 
1345 6844 1686 8954 1385 6195 9615 2131 1010 
5360 3586 364 9518 5921 4611 9674 5663 7502 
8193 3386 3067 5210 3137 3124 3964 1534 2430 
9341 4280 8949 3581 4254 1643 2085 3663 2829 
2286 6879 3202 4978 9988 1941 6443 735 954 
6983 6842 2633 125 5635 2808 617 5031 9422 
2056 3488 7458 207 949 5042 5438 4019 7383 
4809 8042 6543 2690 4697 5282 7913 2300 379 
6345 4796 4837 243 5224 5721 2654 5740 2972 
2612 8052 3562 1773 4626 2259 3769 1622 149 
1194 4899 9569 6291 9309 1238 285 1677 2104 
4904 6415 3545 5588 3367 9340 1281 6042 2615 
6045 1197 5248 938 6920 5260 3266 8430 7397 
2650 2431 3662 4544 3314 332 4489 1487 5356 
6982 9636 231 4681 5008 1213 4101 1887 1198 
6435 1236 1127 7355 2425 6480 9929 325 6666 
2618 8102 6321 9146 5315 4728 49 4031 249 
7075 76 8261 8315 6185 903 240 1730 48 
1440 2063 6325 9338 3427 8403 2350 3852 342 
1248 7100 2608 7840 182 3733 1246 7297 6220 
2330 6298 6130 1576 7041 7955 2522 5159 9969 
4510 2725 3779 9587 8480 8411 6304 9247 7496 
2126 4511 6583 5600 4641 2727 7684 1202 4263 
3969 1804 4942 4159 1324 6491 7803 7348 8730 
7367 1340 3990 3631 3072 5758 4782 6924 863 
1679 3410 8154 3187 895 3624 3026 245 7036 
7080 5198 7982 8247 5015 5491 7176 7251 4902 
2846 7541 4318 4217 708 2534 6218 4946 3161 
1357 8054 6171 6270 8051 9665 9306 391 3935 
1651 804 768 9287 6128 4923 2198 2602 5071 
1779 3419 2634 2486 899 5130 8618 7570 2627 
4532 1800 3076 2976 6251 2497 2629 4759 6914 
2360 1173 9942 6452 1893 1668 3333 890 258 
3527 747 5465 2868 3711 6795 2325 8066 3718 
3046 7809 3006 2490 6081 8814 8089 6307 7685 
3239 2183 3128 1115 2470 9031 2851 8634 5593 
7875 8208 4662 866 3396 9284 1412 1705 8789 
2598 6492 154 7744 5469 5019 9070 2540 4349 
4037 4434 8275 8891 4950 3913 3397 5792 9327 
5535 8843 8010 2956 4501 9053 5059 1203 5576 
785 3910 1833 8840 5947 8432 4361 5648 943 
5789 4670 806 2090 6297 366 1815 3220 6285 
447 9495 9347 5044 10000 8144 6904 128 766 
6708 7882 8847 6417 1233 1337 5200 1044 1261 
9122 4415 8602 4094 86 308 8858 1129 402 
4183 3634 2272 3816 3614 8156 7612 3938 6337 
2161 6191 5802 2753 6202 2185 1289 4401 8653 
8071 472 7018 1168 4861 6052 3724 3143 9222 
4719 1429 5173 6183 8413 1638 8166 2079 2513 
1022 7942 1837 5900 3037 5878 5629 9021 8898 
536 7377 7841 5105 9241 7178 7952 374 3166 
4429 5014 1303 4568 2028 6030 9558 96 3897 
2168 8068 4765 9994 5887 8853 1218 9260 6601 
132 1510 7474 9019 2813 5603 4177 5990 6707 
2223 9236 218 3987 6248 1925 9891 1178 6334 
5141 8478 1157 2774 9635 3703 8379 4000 9531 
5074 6754 7972 339 531 9526 9796 8417 4185 
4325 7089 5425 845 1265 433 8103 3485 1883 
9228 8780 3903 2400 4105 4260 452 1963 5751 
2098 6125 4469 3638 2011 514 5436 7422 7256 
506 4367 9670 2148 3130 4870 5985 7299 8276 
6935 1414 4820 7916 5669 2780 4155 3970 6341 
3250 4279 8944 9706 5373 861 3453 4212 5009 
3317 9992 450 5431 1648 2628 3695 6805 2873 
4205 6111 1529 7442 4464 9868 188 230 4236 
1625 763 5484 6971 3986 1630 1071 4577 7823 
8734 1741 524 645 8542 8418 6488 8752 5857 
2619 752 7992 1358 18 7674 8220 9900 9918 
8896 2017 9360 5609 2993 1407 3261 1514 209 
4949 54 3587 5944 8600 7692 7966 1751 6832 
8344 242 8882 9227 1237 6640 5518 9153 420 
4335 4779 4287 2428 7604 8501 7506 8937 5403 
3468 6824 4321 4441 1363 1750 9269 298 9068 
4658 2908 5039 8767 8148 7489 9428 3860 1244 
8791 6272 9159 143 5584 3977 2167 3952 7582 
5062 3740 9695 9009 3822 2883 9396 4585 7410 
6327 8682 6598 5554 2200 6080 6269 916 6215 
2451 4773 5938 1489 3668 5898 6149 5459 1739 
3869 9357 6657 9417 6308 443 2121 4193 4688 
312 7725 9928 6653 9940 5515 3980 7754 9926 
4277 6084 4363 929 334 1523 2836 7165 6407 
6478 5487 1518 4520 1539 3989 648 1847 1383 
4346 4842 6735 2884 998 906 9418 347 5239 
1522 2463 7400 5478 7333 2487 1942 6774 4933 
2033 4147 675 5700 5641 9394 8956 5175 2632 
292 4886 8611 9033 5005 8117 6331 8885 5956 
4721 8210 7453 4808 6948 5433 6770 8396 8024 
4040 7245 3572 8820 8264 8943 5587 3047 773 
4473 779 1528 5694 4306 281 8918 2703 2071 
4651 7847 5338 3203 2901 5820 2842 5138 9999 
6186 1806 3981 2558 1065 1652 7066 7374 5330 
449 1912 3498 2116 7559 8549 4874 4801 1462 
3576 4252 1274 5676 5714 4379 194 9979 6180 
3372 3603 3902 3803 5222 1078 9354 8702 4150 
6404 4711 5410 2301 8736 6160 5172 8580 2723 
3815 6965 6713 4201 4562 1752 6535 1190 7503 
2610 2117 7311 7213 8280 4644 4579 2568 1201 
3106 6192 7419 8111 3551 97 7630 3965 3606 
8267 8554 3622 5207 9953 1970 1989 2337 4267 
6089 9609 6851 9045 2933 4108 9784 6294 9230 
2755 4173 8124 8652 4541 5761 9503 8519 6516 
1706 8658 6940 9351 8191 9412 947 7209 9849 
9434 5733 4086 1561 2162 2730 3494 6677 7313 
7517 5934 6521 215 3443 9344 8460 9456 853 
4460 7019 16 5220 3526 1958 789 2145 6550 
7303 9063 41 4684 1960 9624 6887 9349 1305 
5511 8893 575 8894 8994 354 264 7863 7611 
432 3099 5752 3438 7163 5305 1703 8746 5701 
6848 9950 9050 9030 6978 9117 5660 8826 9308 
8888 6892 8751 4479 836 5003 3506 791 8008 
8569 8835 8911 3482 9424 7977 7509 1548 8370 
6932 9300 8760 8356 2219 5937 4630 3806 9331 
5961 5446 937 4686 9268 114 9744 5657 5959 
5860 5448 6773 803 7889 7329 275 8516 593 
8012 698 7026 3690 8645 5746 1453 331 777 
7768 421 3243 2238 6074 5231 5651 6152 268 
2637 4069 5895 1459 8861 7000 6712 762 4657 
1 6609 64 1604 5992 9717 6894 1300 3497 
8766 2919 5542 6933 2150 6254 273 4687 7 
734 8563 7936 6555 533 2697 2379 3426 1859 
2707 4638 5336 8683 8134 4462 3871 6326 5432 
7258 7878 8157 4776 1921 7778 2326 5135 6532 
2204 8546 5150 3525 6008 2329 2937 7567 7923 
7004 596 455 9996 1639 6996 6219 3242 3983 
4649 3399 4454 7002 7198 5668 3955 7679 4194 
6336 2402 4457 302 3499 910 5962 4881 6487 
7402 5930 5078 5090 9413 7368 9224 3500 1603 
42 223 5622 8638 8194 3342 4410 401 585 
5202 9735 5508 5269 1183 2292 479 4982 1481 
6561 3388 2702 9175 459 4304 9963 2803 3193 
5973 2967 751 2667 6421 1081 9250 4494 5381 
2260 3582 1813 9374 3153 5112 5082 6015 3301 
8930 1993 6343 1169 4184 7695 2462 4225 5867 
9715 986 6113 7296 1486 5041 7731 5251 8241 
4391 3790 9369 6354 7001 7670 8641 6599 871 
6135 7196 9592 974 5687 1402 3216 1214 3957 
1401 9168 6194 6464 2662 3984 322 7918 141 
6772 5093 4621 522 1059 1551 4918 8628 7418 
4798 3471 6458 9429 8113 2250 9361 4706 1374 
1619 3936 226 416 5095 5918 8793 9015 1909 
2307 3328 6208 5366 9769 6881 7775 7826 9845 
4677 2349 3244 1312 7537 7532 2617 5531 4182 
1079 7981 4973 5771 1318 3475 1390 2458 3683 
9669 4389 624 4584 6375 8859 4121 3265 5375 
5490 1217 4724 2804 5233 5738 9823 4281 2413 
1795 3470 3327 9190 2448 7652 246 6223 4605 
6815 3697 553 2861 5365 1392 8038 8585 7813 
7321 5972 7039 6961 326 1434 8654 2471 659 
5780 6489 1601 2955 1767 2007 6188 9333 1520 
1209 990 13 6153 8479 894 8436 4829 1130 
2921 7890 6673 460 4812 3756 3050 5803 3147 
1649 4083 3423 4718 9501 1624 4597 1940 3289 
1827 730 7200 502 3103 2574 4925 8575 2012 
817 3345 3040 8868 3959 1821 6902 3401 2421 
2631 6302 2068 4803 4307 4689 1325 4831 6469 
2785 1043 869 7327 4049 2748 3653 1526 3245 
4292 7738 8425 2533 4909 8900 527 1212 2457 
7225 5079 7247 8502 7864 60 4766 2582 4682 
7658 5612 6855 6431 5876 2481 4490 9438 1640 
4660 9292 6154 4806 2845 1382 7565 2514 2811 
1347 7261 3950 4270 1211 2445 2047 8790 7696 
4673 610 2087 5341 1321 8242 4852 6094 8768 
1038 9482 5342 3889 5026 772 5832 4063 4606 
2232 2978 8339 4669 1055 8831 2684 5568 1841 
884 2312 1590 6952 3035 1766 2971 1971 8586 
352 4500 3189 7739 9295 1207 411 3205 5292 
3284 5092 605 4373 2086 737 8695 1511 5571 
3649 3271 1256 311 4931 8440 1980 3708 9081 
5170 252 1513 3855 8961 5380 6232 6311 7662 
7851 7480 2225 6909 4680 3027 6029 1642 5778 
3069 371 3801 3307 1103 5562 8378 474 1997 
7554 1771 5 1553 7953 4369 1687 4149 1307 
3408 5489 977 2138 4214 3596 7076 5703 6632 
2903 1935 4332 7749 4089 2887 466 6274 7121 
3273 5685 6090 3570 2280 4056 2635 3390 1301 
32 9860 3063 4832 9648 6019 2308 769 2524 
4234 3472 1398 2205 1101 945 3018 2018 729 
1177 4146 5419 4377 8904 1938 174 2674 8895 
3976 922 419 2562 8041 4174 4642 8175 3772 
348 1150 1865 7347 3645 4635 1814 989 4634 
4833 8173 7751 2342 3641 9177 3142 4486 5504 
1664 3840 1704 1996 3837 6658 2605 9513 4865 
4911 1339 55 4025 3725 1228 1192 4244 9841 
1460 3958 8710 4745 7497 3201 4337 7689 1623 
3042 4406 928 1929 8357 63 3839 8313 3344 
3172 642 1926 9594 47 4282 1738 71 5473 
3738 2479 6245 3786 570 9139 4099 4795 3516 
1064 2801 2550 4989 4857 370 1145 554 2318 
9811 1098 7384 7467 1074 5146 5582 2794 811 
9680 3461 1903 1557 5358 1120 1973 3598 4760 
741 3079 1293 934 4853 9350 1848 5974 3252 
2393 1568 8798 1096 1028 9201 8951 7358 6300 
9213 9745 839 2443 5589 2503 710 1922 8122 
6715 4235 4243 1156 2668 9530 26 8806 394 
3916 4345 3024 2275 2531 9924 4375 4722 2255 
8538 4571 7904 4560 1223 4537 2133 1966 8742 