# vtk DataFile Version 4.2
Generated by LIGGGHTS
ASCII
DATASET POLYDATA
POINTS 10000 float
-0.018496 0.000895979 -0.0367036 -0.0187523 0.00375102 -0.0365791 -0.0185539 0.00553134 -0.0366709 
-0.0178949 0.00716433 -0.0370086 -0.0179089 0.0121398 -0.036993 -0.0190836 0.0164121 -0.0364098 
-0.0177753 0.0176095 -0.0370653 -0.019149 0.0191964 -0.036369 -0.0198881 0.00176528 -0.0359772 
-0.0182006 0.00235297 -0.0355987 -0.0213698 0.00372943 -0.0350981 -0.0201736 0.0048591 -0.035812 
-0.0209762 0.00641039 -0.0353438 -0.019572 0.00742815 -0.0361428 -0.0179673 0.0075192 -0.0352614 
-0.0211763 0.00819743 -0.0352239 -0.0210148 0.00999135 -0.0353324 -0.0192856 0.00919436 -0.0362979 
-0.0192555 0.0109926 -0.0363104 -0.0176629 0.0107912 -0.0354997 -0.0206636 0.0118812 -0.0355315 
-0.0190677 0.0126843 -0.035729 -0.0197313 0.0143228 -0.0360577 -0.0212233 0.0148756 -0.035201 
-0.0202358 0.0177177 -0.0357776 -0.0184575 0.017774 -0.0354221 -0.0214116 0.0191367 -0.0350814 
-0.0215524 0.000899536 -0.0349943 -0.0193818 0.000896418 -0.0344918 -0.0176041 0.000894088 -0.0347447 
-0.0224041 0.00240606 -0.0344662 -0.0205596 0.00227715 -0.0343996 -0.0193648 0.00353388 -0.0349091 
-0.0207048 0.00507347 -0.0341098 -0.0223637 0.00564252 -0.0344926 -0.0191014 0.0060841 -0.035049 
-0.0195005 0.00831466 -0.034579 -0.0226469 0.00889278 -0.0342974 -0.0177657 0.00920084 -0.0346628 
-0.0224193 0.0106699 -0.0344524 -0.0205321 0.0111312 -0.0339041 -0.0193222 0.0100959 -0.0347472 
-0.0184719 0.0115269 -0.0340849 -0.0218033 0.0130875 -0.0348456 -0.0201555 0.0136609 -0.0344152 
-0.0227123 0.0145232 -0.0342636 -0.0187447 0.0147541 -0.0346227 -0.0216482 0.0166017 -0.0349437 
-0.0199309 0.0160841 -0.0348667 -0.0228106 0.0174306 -0.0338508 -0.020703 0.0178416 -0.0340508 
-0.0229511 0.0192029 -0.0341008 -0.0196656 0.0191987 -0.0346483 -0.0177489 0.0192062 -0.0346133 
-0.0243728 0.00123794 -0.0330957 -0.0226655 0.000893353 -0.0335439 -0.0208786 0.00089818 -0.0332905 
-0.0187012 0.000893745 -0.0328299 -0.0224629 0.00245092 -0.0326723 -0.0190596 0.00253769 -0.0334463 
-0.0239882 0.00311288 -0.0333783 -0.0209582 0.00336103 -0.0330338 -0.0179016 0.00382824 -0.0339088 
-0.0239672 0.00498936 -0.0333882 -0.0224802 0.00403183 -0.0337192 -0.0190363 0.0051444 -0.033453 
-0.0218852 0.00584513 -0.0327777 -0.0250344 0.00681134 -0.0326005 -0.0235542 0.00671611 -0.0336803 
-0.0218637 0.00738559 -0.0337073 -0.0201548 0.00683245 -0.0337996 -0.0183666 0.00693616 -0.0336219 
-0.0240876 0.00839143 -0.0333047 -0.0177311 0.00850601 -0.0330071 -0.0208764 0.00922969 -0.0337162 
-0.0238168 0.0101629 -0.0334518 -0.022178 0.0104912 -0.0326853 -0.0186852 0.0100645 -0.0330658 
-0.0246541 0.0115405 -0.0326528 -0.0222785 0.0121244 -0.0334114 -0.0238728 0.0129529 -0.033455 
-0.0185607 0.0132597 -0.0336503 -0.0248734 0.0142591 -0.032728 -0.0214655 0.0137945 -0.0331887 
-0.0236816 0.0158804 -0.0335975 -0.0216789 0.0157027 -0.0333952 -0.0199134 0.0157955 -0.0330981 
-0.0178759 0.0161828 -0.0339785 -0.0245456 0.0173575 -0.032971 -0.018958 0.0176093 -0.0337137 
-0.0244167 0.0191503 -0.0330646 -0.0214294 0.0192083 -0.0331519 -0.0196634 0.0190277 -0.0328606 
-0.0178622 0.0191274 -0.0328244 -0.0257761 0.000909505 -0.0320128 -0.0240431 0.000893924 -0.031363 
-0.0223022 0.000894912 -0.0317868 -0.0264975 0.00249627 -0.03143 -0.0246865 0.00249397 -0.0318478 
-0.0179526 0.00237035 -0.0316698 -0.0196771 0.0028639 -0.0317934 -0.0256877 0.00422665 -0.0320908 
-0.0238821 0.00409848 -0.0318135 -0.0221019 0.0042535 -0.0319839 -0.0203337 0.00453362 -0.0318273 
-0.0183642 0.00404709 -0.0321845 -0.0235041 0.0059355 -0.0319309 -0.0202935 0.00630658 -0.0320875 
-0.0182106 0.00599432 -0.032107 -0.0264147 0.00651544 -0.0314933 -0.022414 0.00736384 -0.0319925 
-0.0190702 0.0076167 -0.0321233 -0.0258727 0.00825558 -0.0319353 -0.0239171 0.00822982 -0.0315261 
-0.0207955 0.00802902 -0.0323881 -0.0264875 0.00993754 -0.0314368 -0.0248126 0.0097031 -0.0320346 
-0.0223224 0.00910142 -0.0315636 -0.0204279 0.010277 -0.0323263 -0.0261702 0.0116871 -0.031696 
-0.0205744 0.0123499 -0.0325813 -0.0188303 0.0118955 -0.0323695 -0.0261366 0.013483 -0.031719 
-0.0225029 0.0129981 -0.0318685 -0.0231129 0.014551 -0.0325215 -0.0197282 0.0140906 -0.0325704 
-0.0260835 0.0152834 -0.0317654 -0.0242986 0.0157528 -0.0319225 -0.0215147 0.0149264 -0.0317909 
-0.0182632 0.0156267 -0.0322816 -0.0259442 0.0170764 -0.031875 -0.0227241 0.0165674 -0.0322075 
-0.0210232 0.0170826 -0.0324578 -0.0192756 0.0170885 -0.0320322 -0.02289 0.0184786 -0.0323896 
-0.0175165 0.017423 -0.0321548 -0.0258392 0.0192002 -0.031964 -0.0275567 0.000926255 -0.0304938 
-0.0253928 0.000894941 -0.0301832 -0.0211881 0.000915371 -0.0303829 -0.0196948 0.00111667 -0.0313542 
-0.0180552 0.000899733 -0.03063 -0.0231152 0.0026803 -0.0309929 -0.0213478 0.00247151 -0.0312643 
-0.0272583 0.00398078 -0.0307608 -0.0253117 0.00340568 -0.0304387 -0.0258181 0.00511998 -0.030544 
-0.0240284 0.00515241 -0.0303643 -0.0190149 0.0045598 -0.0305881 -0.0223458 0.00588921 -0.0305564 
-0.0192082 0.00634585 -0.0306555 -0.02814 0.00652709 -0.029954 -0.0246822 0.00675857 -0.0308362 
-0.0209069 0.0072794 -0.0307105 -0.0272257 0.00795368 -0.0307903 -0.0226023 0.00765745 -0.0302335 
-0.0181144 0.00792432 -0.0306419 -0.0256288 0.00884626 -0.0302569 -0.0236749 0.0097233 -0.030562 
-0.0206409 0.00906987 -0.0309336 -0.0189385 0.00928957 -0.031467 -0.0275465 0.011181 -0.0305108 
-0.0251296 0.0107754 -0.0305537 -0.0195703 0.0110726 -0.0309623 -0.0177511 0.0104267 -0.0306313 
-0.0234301 0.0113363 -0.0313491 -0.0216356 0.0115093 -0.031311 -0.0180123 0.0122019 -0.0307963 
-0.0265196 0.0126645 -0.0301702 -0.0248299 0.0125248 -0.0308313 -0.0232881 0.0133273 -0.0302906 
-0.0213957 0.0136002 -0.0305944 -0.0196376 0.0129677 -0.0311753 -0.0276115 0.0140672 -0.0304445 
-0.0247323 0.0143145 -0.03094 -0.0182207 0.0140557 -0.0314026 -0.0252032 0.0160598 -0.0304065 
-0.0230479 0.015081 -0.030813 -0.0215947 0.0160352 -0.0303585 -0.019839 0.0154446 -0.0313402 
-0.0272858 0.0161361 -0.0307351 -0.0240066 0.0173942 -0.0312612 -0.0222779 0.0176278 -0.0308313 
-0.0204792 0.017762 -0.0308872 -0.0183817 0.017665 -0.030593 -0.0272927 0.0191889 -0.0307357 
-0.0255882 0.0192084 -0.0301842 -0.0241721 0.0191847 -0.0312891 -0.0214566 0.0191911 -0.0313591 
-0.0192701 0.0191981 -0.0311151 -0.017475 0.0191456 -0.0310713 -0.0289816 0.000903416 -0.0291434 
-0.0229938 0.00089926 -0.0299022 -0.0195908 0.000897834 -0.0295635 -0.028211 0.00259739 -0.0298874 
-0.0264607 0.00223532 -0.0296619 -0.0242374 0.00217837 -0.0296807 -0.0220141 0.00238819 -0.0296007 
-0.0190155 0.00248973 -0.0301656 -0.0260778 0.00380134 -0.028859 -0.0242113 0.00388054 -0.0291051 
-0.0204548 0.00357292 -0.0301618 -0.0288037 0.00419725 -0.0293156 -0.0272363 0.00508668 -0.0293469 
-0.0222118 0.00406303 -0.0302102 -0.0178334 0.00447694 -0.0292362 -0.0251992 0.00545018 -0.0289013 
-0.0206531 0.0053544 -0.0302602 -0.018029 0.00633761 -0.0292859 -0.0263612 0.00661271 -0.0297018 
-0.023727 0.00659888 -0.0293223 -0.0211864 0.00659264 -0.029074 -0.0285285 0.00825435 -0.029594 
-0.0266967 0.00816432 -0.0288609 -0.0240857 0.00834995 -0.0294789 -0.0212263 0.00842273 -0.0293649 
-0.0195833 0.00772333 -0.0295674 -0.0272818 0.009511 -0.0298947 -0.0186881 0.00927966 -0.0296146 
-0.028742 0.0104527 -0.0293796 -0.0258436 0.010143 -0.0290318 -0.0219816 0.0101748 -0.0301618 
-0.0202494 0.0101711 -0.0295703 -0.0269676 0.0115323 -0.0288505 -0.024148 0.0117424 -0.0293647 
-0.0223934 0.0118779 -0.0297191 -0.0206283 0.012109 -0.0299523 -0.0187341 0.011265 -0.0293847 
-0.0283626 0.0125884 -0.0297486 -0.0251917 0.0131784 -0.0290703 -0.0292036 0.0139451 -0.0289219 
-0.0245607 0.0148548 -0.0292379 -0.0226178 0.0146839 -0.0291197 -0.0198435 0.0142854 -0.0299714 
-0.0285161 0.0154713 -0.0296017 -0.0263336 0.014957 -0.0295427 -0.0182546 0.0159571 -0.0293357 
-0.0235987 0.0163316 -0.0296465 -0.0199187 0.0164201 -0.0298312 -0.0287568 0.0174144 -0.0293663 
-0.0268177 0.0176637 -0.0299074 -0.0248322 0.0176628 -0.029697 -0.0213131 0.0174815 -0.0293259 
-0.0286135 0.0192013 -0.0295189 -0.0269041 0.0191993 -0.0289587 -0.024306 0.0192002 -0.0289261 
-0.0227852 0.0192071 -0.0301494 -0.0205144 0.0192026 -0.0298201 -0.018326 0.0192033 -0.02949 
-0.0302865 0.000949155 -0.0277839 -0.0272291 0.000898568 -0.0287253 -0.0254628 0.000899776 -0.0283873 
-0.0216933 0.000895022 -0.0286613 -0.0180217 0.000996743 -0.0286945 -0.0299037 0.00266937 -0.0282013 
-0.0266522 0.00238966 -0.0278921 -0.0248688 0.00256522 -0.028044 -0.0231467 0.00208839 -0.0282357 
-0.0203549 0.00236583 -0.0288353 -0.0282319 0.0032334 -0.0278831 -0.0215728 0.00378692 -0.0285539 
-0.0280896 0.00503352 -0.0277681 -0.0227496 0.0051547 -0.0289001 -0.0200038 0.00463937 -0.0287457 
-0.0296728 0.00553523 -0.0284506 -0.0195544 0.00640945 -0.0283402 -0.0296083 0.00732365 -0.0285093 
-0.0273757 0.00662646 -0.0282155 -0.0251913 0.00719491 -0.0284717 -0.0225407 0.00745261 -0.0282665 
-0.0281712 0.00820151 -0.0278345 -0.0174999 0.00802786 -0.0289648 -0.0296344 0.00911816 -0.0284778 
-0.0275233 0.00991998 -0.0281684 -0.0240636 0.0100278 -0.0288384 -0.0223632 0.00952913 -0.0285297 
-0.0302287 0.0110135 -0.02785 -0.0286363 0.0117791 -0.0281696 -0.0211325 0.0112746 -0.0284474 
-0.0301672 0.0128035 -0.0279229 -0.0271728 0.0133719 -0.0286545 -0.0234679 0.0132248 -0.02851 
-0.021181 0.0135331 -0.028821 -0.0194907 0.012939 -0.0288382 -0.017769 0.0125264 -0.0285516 
-0.0199784 0.0147428 -0.0282395 -0.0182132 0.0141502 -0.0291816 -0.0297857 0.0155371 -0.028328 
-0.0279294 0.014871 -0.0280139 -0.0261529 0.0149671 -0.027751 -0.0240232 0.0160125 -0.0279276 
-0.0213536 0.0158443 -0.0285855 -0.0274158 0.016498 -0.0285976 -0.0256253 0.0163988 -0.0286951 
-0.0303926 0.0176777 -0.0275012 -0.0281806 0.0184124 -0.027963 -0.02476 0.0177648 -0.0279159 
-0.0230635 0.0178993 -0.0289548 -0.0189667 0.0176326 -0.0289006 -0.0298647 0.019212 -0.0282473 
-0.0218466 0.0191796 -0.028618 -0.0197686 0.0192046 -0.0281873 -0.0315981 0.000905105 -0.0262892 
[...]
POINT_DATA 10000
FIELD FieldData 7
id 1 10000 int
9948 1573 3553 7750 1088 915 5051 2934 7186 
2358 490 2681 3204 6386 9698 9069 6839 8786 
316 9575 8063 4596 7335 5189 74 7734 4916 
5741 3313 9353 2569 8723 2761 9195 3954 668 
1762 9343 9620 952 3639 9702 6179 8043 1597 
24 7163 4639 9373 4994 7572 9774 3909 2225 
2567 5970 3891 9330 7146 9275 7764 7655 3810 
9199 6529 9094 6479 9637 8916 7723 9052 2013 
7485 9662 3040 4102 1602 2281 7620 5080 9545 
1645 9281 4474 3753 216 2436 2710 4588 7415 
6235 6809 129 878 6760 5509 6747 4221 6411 
3069 4441 4250 8871 9766 4262 1339 5127 2484 
7008 5532 1957 5583 4938 451 9529 9264 7151 
1107 4210 7771 9933 1727 9614 7873 9256 2931 
9687 1241 414 3055 9597 8268 7328 8110 4118 
820 2387 5570 5103 3525 1214 6431 3257 2222 
5870 9297 5116 2459 596 9954 4621 3896 2171 
3599 2571 4564 7199 5847 2366 2349 3690 1063 
3062 9651 8010 3305 2948 7739 7460 2467 6919 
5351 8460 6689 508 2949 3117 1269 3654 6060 
7683 2356 3533 5257 8921 971 4453 3507 4292 
6015 5075 1566 3994 211 9500 1329 8405 8718 
3622 8601 5055 8956 6501 2907 4421 8208 561 
2695 3147 7811 190 5446 9426 5152 9980 4922 
5338 4439 502 2898 417 913 9845 6072 9036 
1748 7852 7532 4786 2675 8243 1982 624 5328 
9544 2768 9295 4578 6009 9828 7021 1945 6344 
6822 2966 6781 6201 8157 9050 3540 9968 4700 
9047 6908 8922 9110 7455 5885 460 9693 1985 
9629 2051 2402 224 248 7272 5705 5149 9009 
6437 4256 7111 8829 1221 1061 8451 9348 1336 
4981 5597 279 4368 7674 306 2707 461 2189 
345 6264 3294 1813 8087 6440 8006 3213 2996 
7446 7815 6230 5365 7258 2982 2207 1490 7273 
8122 3552 6824 7032 849 1809 9864 3788 9977 
4810 2668 4781 9384 3096 5584 1245 7986 9164 
7493 1743 1935 9551 5454 8242 9586 1126 1948 
5366 32 8160 8913 2101 3197 5686 1635 7826 
4056 5133 9224 8861 3413 6079 8252 8536 9999 
9838 9765 9246 3550 4030 2919 9497 5541 6008 
5450 4078 8099 8182 8578 5082 841 1139 1217 
7863 7480 3941 5542 7695 9389 4802 9997 3782 
1015 4638 8029 5513 4808 9689 4207 5498 8787 
9394 6584 3984 6851 2112 9646 4214 6305 5026 
8611 7306 9623 9572 9215 3958 3255 8577 5349 
9949 5078 4004 7517 730 6645 7310 5083 4706 
443 8631 7694 2097 41 7153 4012 5714 9902 
5973 4718 4604 3401 3675 6681 6228 2967 5947 
115 9627 5500 6892 1391 359 6776 6911 6206 
565 7807 1865 4634 1942 7188 1671 3634 3855 
1404 504 6691 3705 5175 2098 6202 1864 6031 
9245 8021 4716 5589 3865 8184 6705 9159 8161 
9652 8281 3038 2717 8191 4798 8645 5385 175 
8682 9719 8868 7682 1086 1829 7710 281 2058 
6487 3124 2086 3013 3668 4902 7586 2709 275 
16 5758 8626 9621 2280 9287 1768 907 9815 
5022 6816 554 1312 1413 542 4229 7936 5771 
5646 2854 4286 2233 9823 9859 1613 1318 6904 
9950 1212 9846 822 3306 2223 7692 9276 3123 
905 287 207 923 2487 258 1338 5019 9122 
2978 7004 6299 6961 3079 6952 2734 6940 969 
5375 2258 2861 6089 4194 1325 9658 9906 8113 
335 9269 146 8494 5765 240 2547 1549 9944 
1006 2748 3740 5390 2334 6194 4799 3651 5291 
9168 8316 6932 4580 1704 5632 6074 4852 8546 
6469 9773 5694 5749 1158 1357 466 665 8403 
1766 1931 9232 8759 4099 5330 4844 5210 2260 
9644 4845 4926 2835 3345 3201 4856 825 9884 
1690 9350 5641 2575 6216 3481 8795 1277 7809 
379 158 9920 6289 1890 9817 2185 3445 4775 
4763 8117 3725 8919 8410 1876 9097 3870 9062 
4861 2650 2917 2719 9361 9055 9923 8194 5202 
7410 6657 9789 8665 9141 7754 8326 830 3323 
3795 1124 5651 9929 6463 6227 4420 9619 1481 
9669 1398 8339 2489 7790 8768 528 4190 997 
4991 9526 366 5760 2389 6679 4082 1859 6122 
1415 2039 9947 4399 7190 1360 4823 4415 2530 
2122 108 5873 7035 6447 6180 8000 9226 1580 
3551 8443 2128 3329 951 6257 3199 4116 9503 
5134 7376 7743 143 2880 8325 9736 7558 4270 
9960 5274 4772 7268 2565 2309 2614 4483 6559 
8964 6560 5959 4673 246 6660 7200 895 4782 
4893 1983 9602 5269 5850 7897 7601 7602 9357 
6143 1356 8083 9550 6215 5231 6843 5774 8965 
3113 5508 6971 5587 3583 7084 5346 1030 4967 
9354 9900 3231 1537 4982 5305 7164 1478 9028 
5172 3372 6832 6735 1799 700 4900 3948 3582 
989 3394 9941 8736 8241 4479 6279 946 1279 
1322 1663 5972 8613 3808 2192 6993 9285 2677 
8885 4367 1882 8024 9012 5147 9871 2720 4322 
1837 3983 8713 7394 5668 1281 1804 9398 1791 
8974 3300 1385 9428 1148 9913 6355 8939 5669 
7573 6024 9694 2574 3103 5898 4361 1503 7768 
6899 2652 2832 2399 8734 1657 690 3853 1969 
4277 7013 7371 1700 7451 4692 176 4832 4544 
8075 6047 76 9360 2388 2318 8894 7612 4939 
7119 5310 836 4335 3115 5408 2622 3702 9726 
4052 5550 1708 5490 845 2869 139 2359 7065 
5866 7002 1289 917 9065 7973 9292 1564 9368 
4370 5977 9070 7875 1839 2994 4709 9499 8918 
3317 1341 6046 8335 9344 7206 3190 9578 2216 
5997 3966 8637 4788 5881 6435 8891 2830 8218 
5854 9229 697 4942 837 8867 2237 1971 7165 
3970 2346 3467 3554 2221 6314 3883 7962 7933 
9673 4033 1776 1607 2375 453 5889 8219 5769 
4304 2497 9628 7093 605 244 6016 4977 5427 
6273 9376 2864 5971 5239 729 6837 4907 9030 
6198 2701 5099 8074 8612 1113 1501 527 6801 
888 8866 1840 8297 6494 3006 6855 3562 3046 
4592 9567 7736 4986 1377 7489 7403 4026 8431 
7825 220 4965 4641 6307 8535 9705 2380 5333 
5715 5475 5060 3262 341 1238 8943 2470 3695 
6291 8598 3435 2623 4606 7727 5588 9976 5474 
3376 3303 4950 8344 6574 6683 3912 5989 6869 
4625 6582 6733 5934 4614 9121 1665 8947 5819 
439 7559 5155 5964 2075 979 4652 7652 9172 
6297 1792 3188 5154 6084 648 3586 289 9316 
1944 5487 2548 6139 5395 6877 1531 3895 7611 
1265 8877 1734 3274 3633 2592 4315 6988 1751 
125 7379 3091 8852 4933 4562 6220 5814 2186 
8095 5759 3464 5549 1601 2690 7958 9903 583 
298 4624 1062 7224 3997 3492 1880 2909 4837 
9170 6460 5951 3395 1472 8300 5746 3784 410 
1757 3968 260 8793 9868 4743 9695 9910 381 
9019 9340 2431 543 8773 437 6416 9928 9849 
1528 1128 9857 9934 9263 1815 5420 3439 1457 
4627 3083 4336 9520 2121 2524 391 1873 1606 
9716 4595 7204 5806 1198 9255 2556 4779 5315 
3884 2480 9107 398 7579 9171 1335 6555 8893 
8702 8320 8592 9984 1752 8145 2038 8828 8310 
6981 4414 4749 271 3581 420 2706 4232 4615 
1206 7630 4321 5159 7505 9915 2219 455 6137 
8569 7386 5730 7483 6203 3838 5860 4279 2621 
8189 7278 8821 7177 5448 5005 3901 4054 1844 
8158 889 1179 3437 8516 8133 9309 1468 9412 
2526 8312 7314 9914 2363 2170 4228 3503 162 
1115 415 1195 4792 4084 2972 9207 7202 7082 
1485 8716 7374 5629 6922 9922 4143 4720 1933 
1981 6712 7537 6184 9848 3515 3161 8515 5215 
8484 5327 5943 661 6933 9100 320 8026 9671 
3568 6128 10000 786 7885 1569 8056 5902 7129 
1714 2892 3914 7605 7848 4728 5417 7832 4467 
9162 4619 5887 8633 2174 9593 6051 8804 6145 
3315 4092 5207 4325 7263 6023 189 7521 5407 
5322 9833 1056 2141 4457 6543 9606 9907 5965 
6240 3693 7653 1595 1857 4429 2846 4331 7266 
8032 8211 8034 2323 1141 6794 778 3032 2666 
6149 8865 8482 4109 2640 9703 2798 9400 79 
588 3166 6607 2370 3519 7982 9417 170 6346 
7593 344 2136 1954 6478 7303 7288 3104 7910 
9085 1678 635 4389 2774 4681 1040 9455 6032 
8752 2683 2989 2998 387 184 4339 303 8286 
1369 5874 3703 8054 5609 735 2859 9837 6866 
4231 2927 3378 8025 5020 9405 3098 5560 4347 
2033 5893 5003 7458 480 4283 9692 7704 609 
473 2148 7018 2300 6062 4023 9332 5981 6277 
2727 6616 7063 9898 9496 3877 541 4602 4764 
7676 3398 7499 6606 1132 2023 5795 1430 4662 
8554 8472 9082 714 8920 6805 2381 7821 8551 
2879 6096 321 4276 9260 8711 5429 8845 8808 
3944 2351 6962 9436 7703 9842 758 1306 2698 
5648 4464 5271 1181 3452 9434 188 5590 7449 
2721 2762 6927 1539 5863 9191 8615 6517 7512 
7997 3625 5992 5576 580 9523 4064 5470 8649 
7995 9527 598 6366 5635 7498 2433 1370 9796 
7067 6160 9918 3160 828 1729 9034 846 8134 
2463 9151 8404 9371 6630 2220 2708 8835 2407 
8962 3021 1035 5352 691 1710 6787 8042 2126 
6234 9249 7282 3100 8590 1532 1255 9106 5926 
9557 1049 5968 8519 8120 6610 7444 7326 2938 
3915 3662 6453 2584 9757 9485 2193 3016 4418 
5153 7502 9253 8421 9639 9126 938 4259 7291 
6802 5010 3704 1087 1622 5663 7894 6505 8167 
4748 7780 2602 7578 7360 4684 9067 8214 6739 
1783 8093 1820 1593 3393 9795 1715 6643 6195 
3917 5136 6097 7385 173 6108 6390 8518 1483 
4029 8994 6036 629 4387 4740 200 3649 8303 
1506 4455 5166 8280 4759 2482 4196 438 3694 
5698 340 2330 8741 471 5654 7830 8873 6916 
7841 7685 8700 1555 7669 8381 3230 277 7865 
2241 9488 7496 6636 620 9064 4459 9086 484 
1091 6856 7989 9282 3462 5707 9129 4531 2000 
578 6626 6999 3447 6038 8753 4957 3643 65 
5706 3367 8442 7930 3904 2699 7227 2322 2922 
7037 975 4980 5236 349 5014 9635 3624 9027 
8445 6829 6317 157 2889 7000 4783 3292 8833 
6966 1320 5585 1631 4807 9894 9504 2751 7634 
1881 6443 29 5476 4209 3864 1019 1994 5650 
2449 1266 1178 325 9802 4628 6256 9701 1589 
759 3852 5523 5857 38 9782 3171 2696 1730 
3591 8036 9044 2213 5673 9135 6835 8039 2110 
4079 6331 9166 4189 5460 8762 4051 4822 5767 
5150 6751 5383 2878 3549 8413 7800 2718 6540 
5816 4306 863 6042 6493 9951 5695 1252 1466 
1021 2198 9927 4043 2624 655 5033 5744 8564 
3766 991 1806 3203 7377 3310 2855 1448 5608 
1497 6178 785 8886 9724 9863 6719 6727 5287 
5677 6330 8500 6762 7274 257 6666 8594 3220 
5379 7029 1102 2763 2124 6488 4923 7302 9958 
1012 9363 4254 4161 4075 3963 7086 3613 7094 
8630 8072 4714 3612 650 899 9054 46 529 
4206 9538 2272 48 4098 6756 6088 2959 677 
309 5953 2460 7311 8363 7569 7309 721 123 
1069 3657 824 8498 4015 4272 8621 7237 9323 
9706 9031 2080 7680 1764 8424 7705 654 1167 
9068 8347 9242 6992 17 6527 2168 6948 7576 
4524 5539 2003 4171 3312 8346 7613 3162 8207 
4943 6078 2678 7552 9101 2540 9261 8351 3686 
798 7541 195 6083 9696 356 4450 1017 5595 
8196 9515 4249 6450 9450 2096 9788 5676 9471 
6810 3712 9383 7637 1914 3580 2009 2383 5869 
231 7760 2600 3600 575 5027 49 5364 1611 
3093 1134 8050 1394 9926 6668 8 9176 6262 
3935 3978 9439 2450 1707 5336 1458 7797 5623 
8147 4503 7799 3989 5932 957 4542 4754 4945 
3817 7230 7731 8187 6953 1563 7229 8352 9225 
9460 4643 1709 6888 4469 6199 2267 467 1578 
327 5001 3448 3081 7891 6161 6889 3802 4954 
261 4576 4423 5910 9992 866 199 6098 5230 
3304 6773 7401 5335 9583 1852 771 2604 6041 
9004 9677 7529 4582 8881 212 4068 593 5343 
7116 7632 6323 8293 1604 5554 6985 4024 3530 
2127 1960 6823 377 4242 7381 7671 6285 6280 
6872 1387 5423 8619 2123 3225 7666 6407 6040 
4685 8720 9786 9559 3767 2081 8714 6593 8878 
594 5739 3609 5389 5340 8159 6402 4855 8838 
1184 718 9329 2048 4892 7596 9966 8696 282 
4589 7439 3800 9908 228 8602 8305 1794 8389 
5791 3309 7678 7510 6073 7931 5353 1936 760 
1978 9378 7828 3478 5919 7866 6935 304 8031 
9534 2642 5727 427 8991 1187 8756 8733 5321 
3913 6403 6035 3809 1116 9208 6012 5514 2095 
5105 4060 6490 6522 9856 9851 3558 9136 4386 
3238 1754 442 3132 4785 7192 1680 230 8047 
818 5069 4826 9862 8340 4295 1741 8141 3573 
8604 2993 8727 1367 1240 7182 9532 5458 6534 
7545 39 1630 540 9508 8824 3592 5418 3830 
106 2958 5672 959 3526 7711 3872 197 6446 
4094 5449 3787 3365 8896 2630 6914 9142 4645 
3133 3379 5192 2813 7557 5494 2733 3039 2641 
6726 720 5681 4813 5521 4964 2157 3170 725 
8276 5396 2427 5004 4141 7156 1373 9042 8978 
5101 4183 7173 5276 8810 8897 4340 6243 6819 
87 4960 8109 5113 9240 9829 5638 6497 6210 
3441 68 7796 3792 3977 9647 6876 6112 4014 
3420 8721 7726 2229 7305 6782 1199 2817 2724 
9816 1793 4471 8088 7843 8311 4739 2310 1875 
3898 7106 5223 2027 2158 9288 9961 1632 424 
2515 9751 3235 2203 7244 8240 3886 486 7219 
4622 9023 1257 8388 3603 764 8144 6644 8701 
5348 5949 7987 3022 5130 963 3011 6539 4653 
5034 8678 6278 8981 3152 6812 4817 1643 2288 
4184 1838 4536 8236 6438 1162 4167 1323 7293 
342 7213 9084 4365 9248 9345 5879 7698 3868 
6530 2212 3217 1073 210 5963 2257 3508 8512 
4074 5607 2590 4713 9830 9748 9444 9535 3290 
2837 6598 3710 7325 3741 6124 9981 3070 8487 
6332 4364 3341 8543 5434 8128 237 164 6405 
7408 646 3031 1842 9633 9217 6268 1924 9214 
3314 2301 7346 6110 9410 9243 5674 3953 1168 
6093 6793 6674 386 1118 1781 8324 7417 8151 
35 5855 2109 4617 8227 3732 7475 7171 5057 
3536 8971 8855 9690 4814 8382 8783 4005 8989 
4433 6592 6957 1689 117 831 5397 784 105 
4516 2046 403 1897 1853 3074 7507 9507 6120 
3823 3707 3186 6650 5840 7157 1275 7699 1250 
2682 9014 6628 3239 2638 5158 2596 9203 7716 
2378 4650 602 5283 7052 6748 9006 7660 7812 
6833 6791 2838 5848 1253 9209 5174 2215 1850 
7980 4009 2749 9289 1544 9835 5520 6430 9579 
238 5264 4847 1205 8636 4691 7135 970 5671 
2800 9566 1698 5139 2367 1076 9873 5658 6471 
8395 5777 7623 4869 6296 7855 604 1519 1230 
8097 1276 5779 4072 1986 4127 4515 6104 8996 
1314 7248 9546 6197 5453 5830 3844 7226 7500 
1249 5661 1175 1999 1140 1808 3278 6893 2680 
7445 4087 4 4913 2446 1899 1716 6551 5594 
445 7770 8671 886 2510 3486 4111 5979 2357 
6590 4475 1949 3421 9032 747 734 6077 6738 
5036 3149 8812 8438 7434 59 8253 8171 8967 
2538 7158 3755 5424 6980 6486 1144 4288 1726 
4972 1732 7640 6338 1525 5296 2588 2522 7005 
8972 6732 7831 2961 333 5984 5958 4077 4100 
1164 5845 4735 7599 1759 8123 3879 2064 9747 
7259 8719 1869 4956 3131 4302 8491 3347 351 
31 2741 6091 77 2478 6260 9469 478 8561 
2302 9588 7217 7170 1333 9022 5246 3060 7068 
8730 8846 9346 2603 6785 7073 2435 5331 8632 
8013 2790 6039 2705 6533 6513 7808 1701 6873 
9522 1522 6567 933 5421 5214 5659 1454 423 
7056 2691 5683 6970 6868 6775 9667 9681 493 
1014 6963 4656 7253 2661 388 5761 9731 4343 
2444 1968 2900 592 9502 5596 6638 8048 8847 
8131 4707 1988 3667 816 5941 7183 5545 6339 
7344 8941 4771 8997 6394 1444 8271 5559 9423 
647 1545 9391 3986 7740 4269 7654 7956 9458 
7902 9776 6399 6627 3629 8552 402 5976 9974 
4953 1203 3232 4213 6308 2262 9198 8638 4481 
6535 5480 2941 1990 6834 6341 3433 8683 9656 
7587 5400 3242 8540 7822 7176 5168 6531 3408 
9387 6984 6631 8863 6860 5307 1807 7709 5216 
9609 2273 4296 7246 5032 193 4546 8370 4076 
8533 9886 2598 7966 9758 6144 3281 2780 9979 
4778 6924 8057 1242 3749 2441 8200 5861 2514 
3939 6731 4396 1008 9088 7260 8357 9293 459 
656 5871 283 7124 9083 9580 5563 5930 1374 
7712 9832 8397 3077 9320 5157 5178 1836 8009 
9147 8412 942 9007 9315 4273 4144 5982 6728 
3224 7133 4591 726 4431 2164 5482 7105 706 
9818 9272 7431 6239 8163 6441 7717 8958 8486 
3918 3366 7062 7181 2269 7391 7508 9600 6759 
2735 3179 9452 3005 5821 2812 7472 9205 85 
9659 4590 8414 4600 858 6907 8485 5927 8471 
2423 8350 6637 9943 9440 2740 1303 9844 2452 
9148 11 4816 6379 973 7827 9653 7924 3463 
7318 9454 3219 3761 2902 8464 3919 3510 5188 
8152 7020 4744 7361 4397 9911 2035 5750 2371 
5693 2700 6536 9573 1263 9791 360 4934 5142 
6778 9568 464 5883 2365 3754 7456 5575 6138 
5156 7225 5209 750 8779 685 6107 4940 6702 
5309 296 4703 2008 3765 666 9473 9403 7970 
1147 4442 6768 1361 5920 5557 9321 9404 1372 
9239 7556 5829 3721 6121 9479 1870 180 513 
7337 6319 4664 3015 9029 1084 6395 7239 291 
6384 8406 8529 2474 8004 9827 7693 9005 9133 
5275 4449 137 7285 8932 9875 5626 1636 3727 
7737 2981 5591 1777 2980 1702 4224 7159 8493 
2120 7149 8532 7927 2826 9711 7544 7675 5503 
3354 767 4534 4819 5416 1728 1616 1447 7078 
3930 9218 6541 8744 1112 9561 7096 9144 4538 
6602 301 1974 2537 2940 5297 1456 5466 950 
2328 4326 3043 3574 5631 8224 7609 744 7072 
1559 9114 8570 8869 4107 6634 8444 5137 8857 
6362 5618 9638 9000 6142 6886 9397 8931 927 
7236 236 6828 28 8181 7941 3514 9890 9814 
7661 8234 5243 1818 8348 8933 9537 30 961 
7907 4815 1037 3728 623 4797 3080 9524 9415 
3894 9359 6577 5072 9364 389 367 3684 6871 
815 1796 7214 1432 4613 1681 2951 9825 8277 
5519 136 8737 5666 9220 3460 7189 380 1615 
1721 5186 8579 8250 1878 2868 290 5800 9179 
8587 2658 8364 8216 5334 9725 1866 8725 4357 
8521 5931 857 6398 3511 8016 5849 7022 3434 
8952 4935 9115 9759 1959 4717 5815 4990 3544 
8257 250 639 9131 2756 7526 4317 2159 9150 
8433 3469 4011 9804 2942 9466 6714 2841 3247 
6011 1417 8987 2214 9048 6655 8545 9762 7626 
4988 3 6265 2520 9539 3263 2195 6906 3881 
8359 7028 920 2577 3134 397 8524 7117 4846 
5428 8228 1365 801 2348 6162 8617 5115 4356 
9098 4668 2828 4824 2347 4378 2679 1424 9234 
5140 3529 90 9881 382 9465 3998 1543 6116 
4594 2253 4066 9880 6744 7892 4887 9480 992 
2270 8192 1585 4742 9565 8771 511 9882 8765 
9975 5196 7450 7994 1426 944 1280 9983 9571 
3146 7406 924 8372 2799 2055 4436 4573 6699 
1867 987 8003 9233 5794 1558 7210 6419 8514 
1499 4145 6010 7055 203 5359 5129 9604 4119 
7974 1004 3176 8287 8566 2911 2447 3151 8416 
6749 1769 2429 198 8799 7575 9607 9582 4912 
5162 6836 6474 9035 107 5409 8292 20 8520 
477 8667 7011 3136 1816 2977 840 1512 5299 
2368 9741 3637 6757 1550 5662 7051 9026 4241 
3943 4461 3320 7571 8531 9189 3776 6424 4034 
6129 9528 9967 2555 4505 7967 9697 1159 4674 
6649 574 481 7440 8002 9553 6287 5692 9972 
9998 1570 1787 5903 2022 611 1379 6253 5969 
7816 2521 4261 860 2529 9831 1782 3908 7784 
2877 3768 7730 5573 630 1464 6654 6595 9071 
6664 9002 5193 4329 9718 1946 7719 6465 1943 
6718 9056 2775 5785 4854 6578 2517 3602 4770 
8668 8942 6746 7462 3165 4298 5566 4841 8576 
2105 4507 7130 737 61 9265 716 8342 2442 
5286 9965 7286 2005 9595 7477 9800 2142 6221 
1517 5021 3237 1713 538 3180 6378 4567 9732 
8685 6680 3942 88 8758 6975 7050 4583 9367 
7447 5119 110 9780 9521 5300 5096 1011 5212 
6553 7132 9113 4838 4758 4165 8508 5928 9866 
3561 9722 9093 6101 4404 3692 5784 8298 8452 
613 2392 4088 1092 6013 4654 9799 7191 3731 
1527 2875 7057 5908 2 78 8797 3064 7231 
6141 3370 8673 426 350 732 8377 4811 1165 
7222 4736 5579 875 385 5924 7354 788 4789 
1758 5255 3384 9494 2821 5102 4984 9888 7003 
1057 7835 9610 7979 931 7240 1536 3735 2256 
7228 7947 3349 6737 3415 595 6928 898 4527 
516 9585 2137 9511 9326 6936 1712 233 3666 
6068 6318 7388 3827 4310 8788 8288 634 5406 
2997 4371 1384 6392 8902 6811 272 288 3921 
7009 9672 3210 7707 7747 255 2108 3949 7495 
1200 7636 7126 6604 9917 3836 186 444 9955 
9805 3887 1319 7470 5298 3440 7584 2151 9645 
6385 1991 1479 5728 4914 5906 7776 709 1504 
1919 6034 7334 8437 2246 8441 6509 9853 263 
6026 6667 425 2797 6473 6146 6943 5203 6618 
6955 8872 8101 7049 9767 6283 2527 6947 3777 
9957 8329 9649 733 9493 5561 1660 8215 5086 
676 8273 809 5640 4730 9259 6729 7138 5886 
2818 8856 7568 5678 9764 2099 9729 7420 6003 
9995 3824 2160 5293 8624 7331 6694 5367 1587 
6413 3339 92 9897 6381 2305 7437 4780 7996 
8745 1847 7969 5393 8960 2037 6119 1509 5422 
2464 7535 1450 3922 9945 372 2557 315 8202 
4115 9483 5065 9197 2485 6048 4539 4992 222 
1186 9612 399 3085 1226 738 3610 1861 6207 
2672 3676 5729 7215 8428 6686 5011 6847 7562 
2943 2539 3713 6172 5569 3348 225 6721 6554 
8506 5091 2882 3934 1346 6572 1368 1234 4478 
1097 3454 4951 4316 5955 3236 8517 3528 155 
1185 8541 9156 6617 5440 548 6696 9683 1939 
3483 7283 7336 9505 5864 375 9302 6552 4398 
5439 9472 3566 4067 3048 9591 7058 3049 5387 
4058 4671 7651 2153 2201 1410 7691 2852 5123 
9464 6941 3903 3858 3458 9134 2264 6549 5046 
1655 3793 2912 3564 7255 9406 7610 2767 4472 
921 6969 7534 2404 2820 2886 7175 6020 7795 
6412 8233 8092 1488 318 2597 8827 2671 2498 
644 1612 4518 145 9590 855 2822 4715 3351 
5187 6376 8504 7211 615 723 5324 3291 4285 
3709 1138 2553 8848 1467 1790 2960 4566 6930 
8209 8289 5183 4791 3821 2327 6827 3346 5735 
144 7538 9060 1332 3001 6301 9708 7893 3412 
6901 6181 1662 9626 707 6974 3715 21 9043 
9641 2870 165 9798 9989 3270 185 5052 5743 
9231 124 4384 632 9932 4123 8879 2905 7860 
5378 7950 7842 2536 8830 5457 5131 2876 7359 
2858 2453 3743 4297 2311 3139 7819 4498 1155 
3658 8140 9138 4521 2287 9001 7769 1077 8358 
8834 789 9481 8726 3846 6477 6562 6883 3779 
559 2552 7324 3744 999 3804 6870 3770 7097 
7564 4227 1538 6151 2031 4393 5713 8139 7546 
9517 7667 3665 2736 1191 9850 3260 7965 1659 
8697 8080 4447 2092 1461 1577 2872 9124 776 
9314 7265 4402 8510 6956 8764 4334 2118 2386 
6589 9749 7223 5094 4463 9385 3108 5268 3820 
8708 6624 1297 5464 3502 1351 2176 3688 8461 
9912 2147 7438 8650 4504 5217 8069 2417 310 
7673 9599 5822 3717 5374 4888 7862 7834 2806 
862 9707 5688 3336 2396 5045 3474 5097 2843 
2032 7631 6106 4587 5037 1316 3259 664 3849 
3720 4162 7281 1284 5828 584 9691 5697 9111 
6994 2516 2231 2549 5081 9202 847 1711 4425 