# vtk DataFile Version 4.2
Generated by LIGGGHTS
ASCII
DATASET POLYDATA
POINTS 10000 float
-0.0181565 0.000949604 -0.0368845 -0.0186102 0.00340755 -0.0366478 -0.0184952 0.00652219 -0.0367033 
-0.0183404 0.00969739 -0.0367851 -0.0177871 0.0115919 -0.0370606 -0.0187974 0.013782 -0.0365506 
-0.0183588 0.0155727 -0.0367738 -0.0181964 0.0176594 -0.0368526 -0.0190315 0.0191954 -0.0364337 
-0.0209641 0.000927857 -0.035353 -0.0191712 0.000897669 -0.0354161 -0.0202408 0.00260914 -0.0357709 
-0.020905 0.00429273 -0.0353887 -0.0178624 0.00494897 -0.0361001 -0.0198881 0.00565771 -0.0359662 
-0.0209538 0.00715074 -0.0353612 -0.0194009 0.0080412 -0.0362409 -0.0204881 0.0093368 -0.0356278 
-0.0208024 0.0111012 -0.035449 -0.0190713 0.011084 -0.0359275 -0.0201423 0.0127568 -0.0358257 
-0.0203292 0.0145359 -0.0357268 -0.0208986 0.0162057 -0.0353942 -0.0191105 0.0161832 -0.0352592 
-0.0198267 0.0176477 -0.0360055 -0.020612 0.0192016 -0.0355569 -0.0225576 0.000913687 -0.0343659 
-0.0232801 0.00248455 -0.033871 -0.0215178 0.00237956 -0.0344458 -0.018911 0.00245876 -0.0345674 
-0.0224047 0.0039448 -0.0344626 -0.0191353 0.00415695 -0.0351039 -0.0218909 0.00572944 -0.0347845 
-0.0201949 0.00549922 -0.034198 -0.0183251 0.00556789 -0.0343483 -0.0232655 0.00647431 -0.0338911 
-0.0192625 0.0070383 -0.0347656 -0.0221935 0.00854345 -0.0346068 -0.0203774 0.00828142 -0.0340912 
-0.0211813 0.00988769 -0.0340105 -0.0186427 0.00919164 -0.0350846 -0.0229671 0.0100822 -0.0340847 
-0.0195405 0.0105325 -0.0342905 -0.0218558 0.0115486 -0.0340652 -0.0190027 0.0122214 -0.0345519 
-0.0223239 0.0132205 -0.0345137 -0.0204443 0.0134162 -0.0341799 -0.0215297 0.0148302 -0.0344225 
-0.0187302 0.0144689 -0.0348899 -0.0225252 0.0163256 -0.0343854 -0.0215912 0.0178095 -0.0349769 
-0.0197778 0.0179162 -0.0342372 -0.0178002 0.0174308 -0.0351128 -0.0225356 0.0192067 -0.0343739 
-0.0182928 0.019203 -0.0347968 -0.024177 0.000985668 -0.0332464 -0.0223577 0.000891078 -0.0325896 
-0.0208525 0.000919443 -0.033561 -0.0190586 0.000896385 -0.0336308 -0.0196725 0.00243705 -0.0329413 
-0.0248164 0.00311175 -0.0327668 -0.0226332 0.00369745 -0.0327043 -0.0208142 0.00381847 -0.0336276 
-0.0179819 0.00303584 -0.0328774 -0.0238331 0.00481838 -0.0334842 -0.0191313 0.00435608 -0.0332924 
-0.025006 0.00589269 -0.0326247 -0.0217133 0.00567672 -0.0329962 -0.0220752 0.00756601 -0.0331109 
-0.0197739 0.00694904 -0.0330506 -0.0240316 0.00799388 -0.0333224 -0.0180979 0.0080241 -0.0338248 
-0.0193305 0.00927642 -0.0330198 -0.0177133 0.00981411 -0.0335866 -0.0244377 0.0101762 -0.0330539 
-0.023516 0.0121383 -0.0337132 -0.0177803 0.0119275 -0.0332752 -0.0186169 0.0135131 -0.0333772 
-0.0240672 0.0139558 -0.0333208 -0.0223123 0.0141289 -0.0329666 -0.0205597 0.0144557 -0.0327164 
-0.0239395 0.0158013 -0.0334129 -0.0201963 0.0158658 -0.033774 -0.0223662 0.0161493 -0.0326056 
-0.0186125 0.0167041 -0.0336151 -0.0246941 0.017392 -0.0328609 -0.0229776 0.0176879 -0.033307 
-0.0211844 0.0173049 -0.0333046 -0.0240112 0.0191589 -0.0333571 -0.0208881 0.0192 -0.0336503 
-0.0190902 0.0192012 -0.033186 -0.0254988 0.00146623 -0.0321365 -0.0237685 0.00107049 -0.0315044 
-0.0197901 0.000895894 -0.0319983 -0.0214079 0.00240426 -0.0324857 -0.0236144 0.00285654 -0.0314561 
-0.0209986 0.00394368 -0.0316654 -0.0191646 0.00359719 -0.0316606 -0.0260605 0.004595 -0.0317835 
-0.024266 0.00449995 -0.0317698 -0.0232717 0.00601458 -0.032158 -0.0201296 0.0054264 -0.0321757 
-0.0183865 0.00524486 -0.031799 -0.0254994 0.00741189 -0.0318138 -0.021051 0.00692167 -0.0317911 
-0.0181693 0.00711046 -0.032256 -0.0223047 0.00825666 -0.0314661 -0.0196698 0.00808905 -0.031664 
-0.0258601 0.00916182 -0.0319471 -0.0239079 0.00898075 -0.0318285 -0.0224747 0.00994208 -0.0323591 
-0.0210158 0.00889956 -0.0325304 -0.018071 0.00889683 -0.0317921 -0.0259091 0.0109534 -0.0319162 
-0.0210025 0.0109728 -0.0325929 -0.0191963 0.0110393 -0.0326029 -0.0243122 0.0117259 -0.0321624 
-0.0221995 0.0123901 -0.0325125 -0.026652 0.0125149 -0.031292 -0.025357 0.0131753 -0.0323464 
-0.0236045 0.0133078 -0.0317107 -0.0201553 0.0125613 -0.0326244 -0.0267334 0.0143195 -0.0312152 
-0.0191312 0.0137295 -0.0316792 -0.0255351 0.0152354 -0.0322052 -0.0237932 0.0150883 -0.0317777 
-0.0188538 0.0151736 -0.0327105 -0.020643 0.0161317 -0.0320521 -0.0260947 0.0176193 -0.0317662 
-0.0238264 0.0184657 -0.0317071 -0.0219688 0.0176728 -0.0317313 -0.0196668 0.0176763 -0.0324268 
-0.0178913 0.0179212 -0.0325155 -0.0254418 0.0192067 -0.0322779 -0.0223393 0.0192063 -0.0325907 
-0.0207013 0.0190366 -0.0318678 -0.0272711 0.000897071 -0.0307554 -0.0255063 0.000893848 -0.0304375 
-0.0213471 0.000895433 -0.0311136 -0.0182908 0.00089588 -0.0310145 -0.0221653 0.00237098 -0.0305031 
-0.0203253 0.00237071 -0.0310508 -0.0272335 0.0034696 -0.0307883 -0.0255532 0.00295516 -0.0311381 
-0.0264619 0.00492598 -0.0300629 -0.0248173 0.00420548 -0.0300854 -0.0225725 0.00466839 -0.0312006 
-0.0198035 0.00480384 -0.0305084 -0.0177999 0.00405768 -0.0305886 -0.0280506 0.00576323 -0.030039 
-0.0267627 0.00629147 -0.0311944 -0.0250138 0.00584071 -0.0308322 -0.024056 0.00754926 -0.0307583 
-0.0224581 0.00665169 -0.0306864 -0.0193411 0.00649314 -0.0309076 -0.0271002 0.00834642 -0.0308967 
-0.0258384 0.00940996 -0.0301663 -0.0228912 0.009656 -0.030507 -0.021158 0.00976403 -0.0309688 
-0.0274398 0.0101038 -0.0305987 -0.0260546 0.0112347 -0.0301587 -0.0244742 0.0104111 -0.0309017 
-0.0182796 0.0105556 -0.0311358 -0.027886 0.011799 -0.0302 -0.0247103 0.0123751 -0.0304874 
-0.0228429 0.0113004 -0.0312309 -0.0210207 0.011584 -0.0309076 -0.0192943 0.0120378 -0.0311063 
-0.0228551 0.0127577 -0.0301765 -0.0211807 0.0133228 -0.0313583 -0.0249812 0.0141077 -0.0308586 
-0.0281769 0.0149459 -0.0299335 -0.0220587 0.0148925 -0.0313641 -0.0198103 0.0151332 -0.030801 
-0.0178291 0.0148836 -0.0312458 -0.0268503 0.0161192 -0.0311158 -0.0247197 0.0165434 -0.031276 
-0.022954 0.0164154 -0.0309119 -0.0212452 0.0160742 -0.0302865 -0.018808 0.0165101 -0.0313684 
-0.0275548 0.0176916 -0.0304974 -0.0257798 0.0173568 -0.0300339 -0.0203452 0.0175471 -0.0307712 
-0.0268285 0.0192039 -0.0311357 -0.0250931 0.01896 -0.0305288 -0.0224344 0.0191636 -0.0308006 
-0.0189619 0.018977 -0.0314064 -0.0279739 0.00089548 -0.0291071 -0.0238591 0.000891261 -0.0297285 
-0.0220091 0.000891696 -0.0294518 -0.0198466 0.00089913 -0.0301266 -0.018329 0.00139521 -0.0292949 
-0.0284088 0.0025359 -0.0297045 -0.0265784 0.00199319 -0.0295097 -0.0247321 0.0024621 -0.0296149 
-0.027156 0.00361362 -0.0290026 -0.0231203 0.00371131 -0.0297882 -0.0209855 0.00359382 -0.029906 
-0.0190408 0.0029368 -0.0299259 -0.0287929 0.00428604 -0.0293295 -0.0254026 0.00600236 -0.029085 
-0.0235298 0.00545073 -0.0299023 -0.0214313 0.00533126 -0.0299816 -0.0195908 0.00596608 -0.0291603 
-0.0178053 0.00586168 -0.0302172 -0.0285112 0.00753069 -0.0296087 -0.0269488 0.00689039 -0.0288773 
-0.0257405 0.00753254 -0.0300389 -0.0236133 0.00704759 -0.0290951 -0.0208223 0.00702015 -0.0300193 
-0.0188102 0.00755473 -0.0294491 -0.0244343 0.00862723 -0.0293599 -0.0223078 0.00814051 -0.0296718 
-0.0201032 0.00866751 -0.0300138 -0.0174611 0.0085032 -0.0301517 -0.0293632 0.00886307 -0.0287575 
-0.027588 0.00901114 -0.0291777 -0.0214557 0.0096527 -0.0292052 -0.0188455 0.00987371 -0.0295761 
-0.0290458 0.0106037 -0.0290807 -0.0241953 0.0111459 -0.0292867 -0.0223657 0.0111647 -0.0295083 
-0.0202583 0.0109692 -0.0294017 -0.0186093 0.0116717 -0.0294867 -0.0287661 0.0132057 -0.0293547 
-0.027004 0.013289 -0.0297129 -0.0212394 0.0125562 -0.0294156 -0.0198572 0.0134974 -0.0300558 
-0.0180746 0.0134082 -0.0302561 -0.0267337 0.0148637 -0.0288714 -0.0252194 0.0139149 -0.0290593 
-0.0236156 0.0147168 -0.0298589 -0.0218965 0.0142025 -0.0297208 -0.0255429 0.0155792 -0.0300052 
-0.0203936 0.0149694 -0.0291138 -0.0184193 0.0157346 -0.0297798 -0.0291859 0.016958 -0.0289389 
-0.027476 0.0164632 -0.0291937 -0.0229523 0.0162244 -0.0291244 -0.0198543 0.0166876 -0.0292712 
-0.0239942 0.0174997 -0.0299317 -0.0220616 0.017631 -0.0299368 -0.0186844 0.017775 -0.0300958 
-0.0282649 0.0192045 -0.0298417 -0.026757 0.0185501 -0.0291131 -0.023646 0.0192017 -0.0294768 
-0.0218892 0.0192041 -0.0290899 -0.0204055 0.0192073 -0.0301029 -0.0176064 0.0192049 -0.0302495 
-0.0296506 0.000963887 -0.0284631 -0.0269282 0.000898147 -0.0276467 -0.0253954 0.000917211 -0.0286384 
-0.02381 0.00157142 -0.0280789 -0.0282201 0.00213535 -0.0278378 -0.0260962 0.00248004 -0.0278401 
-0.0224002 0.00247636 -0.0287144 -0.0206042 0.00176912 -0.028758 -0.0297125 0.00296455 -0.0283984 
-0.0238758 0.00336474 -0.028194 -0.0209838 0.00340132 -0.0281249 -0.0192607 0.00289367 -0.0281406 
-0.0255106 0.00407495 -0.0284345 -0.0240745 0.00515217 -0.0282229 -0.0223388 0.00474555 -0.0285471 
-0.0196861 0.00463195 -0.0279661 -0.0181696 0.00463083 -0.0289269 -0.0304921 0.0055361 -0.0275645 
-0.028805 0.00596801 -0.0284212 -0.0271247 0.00522834 -0.0282232 -0.0300499 0.00720746 -0.0280476 
-0.0248646 0.00716518 -0.0278139 -0.0219483 0.00649228 -0.0287195 -0.0204056 0.00730971 -0.0283007 
-0.017482 0.0070379 -0.028271 -0.0282047 0.00764821 -0.0278458 -0.0261684 0.00838836 -0.0282644 
-0.0232063 0.008227 -0.0278095 -0.0179117 0.00883272 -0.0284494 -0.0231864 0.00976441 -0.0287401 
-0.0197107 0.00897188 -0.0282837 -0.0303015 0.010052 -0.0277694 -0.0279345 0.0100991 -0.0277614 
-0.0264036 0.0102733 -0.028689 -0.0181815 0.0106288 -0.028086 -0.0299334 0.0118709 -0.0281639 
-0.0279351 0.0118468 -0.0284122 -0.0259109 0.0122779 -0.0287064 -0.0230797 0.0114013 -0.0278795 
-0.0195623 0.0117813 -0.0279619 -0.0270914 0.0133813 -0.0279223 -0.0238571 0.012804 -0.0286868 
-0.0202421 0.0134253 -0.0282024 -0.0299988 0.0143181 -0.0280984 -0.0237593 0.0144756 -0.0280372 
-0.022009 0.0136803 -0.0280142 -0.0187759 0.0142491 -0.028835 -0.0303829 0.0160198 -0.0276739 
-0.0285743 0.0154 -0.028251 -0.0246241 0.0159767 -0.0285139 -0.0176238 0.0160316 -0.0281963 
-0.0259609 0.0171514 -0.0282748 -0.0213385 0.0162833 -0.0283394 -0.0280078 0.017657 -0.0277765 
[...]
POINT_DATA 10000
FIELD FieldData 7
id 1 10000 int
4282 2991 5914 7108 4665 4773 589 2659 5109 
1720 8358 8476 6029 3849 7356 9152 4311 9615 
354 2636 5185 6821 1901 6972 4663 2414 2021 
1576 169 5295 4179 664 5002 4264 2552 5061 
5118 3212 4543 6312 4425 149 375 1416 5755 
4462 2420 2082 4266 8398 1439 221 7738 4204 
7220 6528 8462 8557 1072 3779 2995 3960 6662 
1284 1848 463 3128 819 4879 3454 3928 9302 
4478 9025 9916 86 1711 3270 5867 5710 5088 
4525 9596 4477 2119 6983 9102 124 6863 6351 
2263 5721 7154 1346 6057 2278 679 733 7615 
1342 4895 1097 2713 564 1469 1790 9280 5387 
1624 3246 5415 2736 1577 2384 4027 1662 3860 
2773 7563 1182 4093 6786 3419 2465 8961 2999 
3903 6282 2125 5444 3490 5071 709 5234 9824 
7160 4174 1151 3311 6714 9935 8942 270 2242 
5625 2783 1020 516 3259 2755 1294 7363 3234 
4821 6994 450 1409 6915 3496 305 4695 8999 
1461 1779 4603 6152 5916 4058 8679 8084 9186 
3851 8957 6412 3793 6831 4971 4324 7763 5604 
1618 6878 8827 2979 705 8802 9599 3459 7474 
7633 9494 1943 6267 6633 8977 2106 7952 6376 
5924 2200 2890 8988 9793 6474 6947 7422 4182 
8691 7686 5864 7228 3734 6696 6846 1384 6920 
6635 3979 8788 2074 9324 1530 3566 6392 1476 
9519 7893 4165 8745 4734 3579 7988 2866 9334 
6941 2557 1345 7713 8749 5176 2249 255 9912 
2197 4048 8062 1155 315 350 2255 7884 1661 
8692 8738 8940 2573 7354 7024 9990 8101 4770 
1429 7748 2932 2882 1234 1553 6109 5772 4486 
4679 9585 2142 6729 796 9180 2739 707 1133 
4791 2788 8331 1552 7965 769 2808 4156 9763 
6413 1507 2331 374 3243 8337 3650 9231 1248 
2336 9577 511 8457 9197 5660 8018 7148 7534 
6177 9492 5298 3506 3068 8593 2943 1746 1697 
9794 6959 7193 723 7766 5278 4341 1224 7294 
2181 7424 3835 2595 6221 548 5312 1916 4629 
6265 6583 3191 1763 7295 163 4501 4519 4275 
2663 2804 1422 9464 745 4678 9989 8686 2786 
2766 6944 4310 3575 9822 1002 7566 9798 6056 
2037 1319 2615 4002 5225 98 3656 2295 5630 
9161 1504 2608 7820 5281 9552 9002 222 6664 
6007 9514 2841 385 4490 1884 9867 4507 3384 
6895 6247 8465 2442 154 7433 8668 9505 3129 
1679 1381 9874 9878 5886 233 5439 1201 6025 
440 7138 3670 2374 55 1467 6301 7137 2618 
8049 1587 496 4756 2885 1889 2299 3921 3339 
2476 1233 9713 7747 1878 4505 687 1453 1583 
3561 3648 5619 2876 2664 3158 9137 8452 5969 
3350 6055 6958 2863 1499 1817 5788 7271 2525 
1891 4654 4317 990 5689 2315 8221 4997 4119 
2911 3263 137 2382 2149 9493 2447 7654 4698 
9279 4035 4215 1147 3004 539 7947 4664 898 
3993 6777 2867 1524 5735 1921 5631 2001 4646 
3282 6880 8510 8288 1712 1696 1425 7614 6181 
900 6862 790 8902 5212 3001 9113 6538 6826 
2028 4120 2469 9372 5613 4758 8071 3940 25 
8298 7100 980 3547 7020 1755 3167 288 8216 
8527 7794 1186 1456 3688 4593 3737 2759 2711 
2597 873 6385 9888 5243 4498 7470 5123 5297 
7281 6870 3887 9326 6477 3623 7097 5324 8342 
7967 2429 6510 7571 1242 7627 272 7255 4402 
7440 834 8181 4357 840 1037 6718 7353 5187 
4992 981 6461 4527 6680 198 7819 6883 5367 
2561 1874 6858 9881 7636 7996 1077 4804 2079 
8285 8201 6699 7562 8461 3346 9111 5697 5569 
8834 1297 2905 2806 847 6509 8844 9610 6483 
6476 6707 3816 5156 80 7265 9099 2516 6923 
5286 8295 6562 2769 3240 9259 4334 9771 7769 
4510 2466 4849 9604 5309 9554 3371 9598 1962 
66 3295 4213 2563 2244 4042 9315 2472 7003 
2195 8558 6018 3714 912 9525 7854 4579 994 
9039 7232 689 9919 8273 5115 9800 1309 993 
941 3862 9005 1625 3461 6761 1110 9875 2347 
5072 5718 6371 9708 136 4594 2030 3148 8559 
3049 9711 4391 8261 9697 1655 1973 3047 7789 
3174 8934 9612 9218 4348 4485 215 6604 9945 
8153 3299 9643 7816 518 4741 958 4884 6119 
4928 8230 5833 6270 2061 9252 5956 2955 1380 
3485 4848 5497 8684 8987 5564 7548 8854 5942 
7030 4535 7979 1749 7561 4487 9046 4332 328 
2545 9879 8872 4298 4300 780 2893 8507 362 
5829 6319 6836 3537 2660 1371 1575 2348 1032 
4246 965 9026 2474 4134 2568 5263 1405 6704 
8707 1947 9472 253 6565 9077 914 688 6766 
2740 4234 1236 2884 5053 9367 8002 8634 9416 
8674 992 8618 617 2581 3409 1283 4917 1733 
7369 8748 7406 3638 3476 9408 1308 1991 2371 
69 12 2252 4006 6442 7600 8178 3178 8552 
9369 9228 6987 7352 6246 2304 7547 9730 6484 
5871 7970 2428 590 7103 6711 3143 83 8091 
9089 2214 868 4373 4258 4153 2345 3272 9530 
4330 2282 4168 6804 1907 623 1223 3611 7869 
8354 8531 6310 526 736 4583 7214 9686 1649 
2789 1950 4661 3942 5519 2107 972 9752 3491 
6973 2088 4838 4778 9277 6298 482 2423 4437 
9127 1173 6912 1359 5503 2935 5900 1043 2745 
7646 3588 5903 5693 4251 6004 168 793 5462 
8162 2251 3768 8950 2839 2245 1437 7134 8709 
5098 8106 765 3375 3857 2243 6612 3682 1443 
4961 3923 5911 1930 9466 4260 949 4044 5742 
1496 2426 2928 7649 3088 4818 9061 6356 3232 
9289 1629 7901 3319 3799 5559 2329 7567 1375 
9858 8348 7105 1894 5909 7943 3843 5790 6449 
3024 1785 9271 4130 6613 7672 4378 2812 8277 
4499 2430 7426 3719 2741 6800 3589 7370 1039 
4859 8400 1101 988 2188 3727 1218 4178 6556 
3542 3479 4113 556 6069 4456 7046 3763 7639 
2273 1079 3636 3687 669 4744 7647 384 5616 
5493 1620 5527 7033 1824 8247 7657 3381 8825 
3749 9478 2649 8455 8926 6764 2364 622 8819 
6138 953 406 5528 2656 5602 2838 1676 9470 
254 531 6432 5574 7999 5272 8081 663 3449 
2576 5317 1271 7520 8149 3 6126 515 5461 
99 1608 7806 4784 3125 4941 4921 9364 8492 
1816 2807 373 9734 7896 9564 7080 9386 627 
2043 6504 9104 4176 454 6652 4669 1917 2473 
1290 8155 3739 3338 911 1011 4509 9447 5265 
5922 2206 9553 9083 334 8511 214 3382 510 
5483 3354 7252 4803 8544 9787 5043 9366 4920 
8715 8449 7940 388 1516 6115 3192 1788 582 
5537 5824 9634 1135 6784 5284 1784 204 1877 
9078 8468 8104 4560 1470 5326 8731 7879 647 
1535 6190 3249 8890 8669 4308 7380 7536 8667 
7556 3965 376 2024 5329 9311 3606 8818 1046 
9066 3042 2179 1210 5221 9654 3134 5777 7245 
943 3775 8936 704 823 323 3947 9655 1825 
1117 2302 4767 1031 7912 4600 8349 6894 906 
5425 174 8477 8693 4633 9328 606 269 848 
4296 2458 9940 4248 7945 1180 369 9377 5023 
9720 2894 4458 4648 6445 2177 3017 494 3885 
1838 1892 6322 3590 5939 7341 3513 8639 3127 
134 8171 2703 6658 3025 6118 6849 2146 5506 
3680 7638 2434 3410 8232 4755 274 1270 3848 
8899 6165 5250 7089 6763 8522 8375 8027 6614 
937 245 1964 8061 2190 4197 4169 284 2285 
6627 1533 3794 2844 126 5485 7845 7720 1216 
4999 9206 332 6451 6750 6281 3971 4577 7774 
6044 1581 9826 5546 8429 9834 8332 7155 4958 
2049 501 673 2253 3929 3298 1900 4274 6065 
9516 3009 4224 5486 2362 8301 9991 6576 626 
933 8586 3832 8168 5936 5555 3221 2491 563 
4320 2923 95 3090 7829 6734 9921 3620 3679 
7972 6646 72 1699 6347 9714 7551 4995 748 
8229 1909 2050 9563 5522 2401 7690 6368 5289 
6370 6702 3343 3037 2771 3834 2834 8022 9570 
3211 1244 9286 2965 5696 7267 6095 1619 4385 
8675 8473 5737 2390 3442 7054 6127 5404 8616 
7921 192 8923 9235 2236 7409 6506 680 5621 
2083 3432 835 7833 1666 4466 2217 3362 9445 
3325 6468 1161 3655 1958 5224 9074 7235 5637 
3906 7045 6470 4732 6663 6242 4299 3340 3404 
9700 5471 8605 7441 6842 2085 9664 1152 5610 
4219 2446 6404 4313 1189 2036 6429 4699 5007 
242 803 8953 3286 6117 5443 2065 3281 6910 
5316 5258 8343 3082 6951 1452 3287 5024 4294 
3229 5725 2182 3254 2014 546 8282 2778 3759 
9251 9424 280 1382 435 2599 9090 8114 5633 
113 371 1298 4572 1219 8011 8040 5757 5912 
1005 4435 5940 4382 1386 5558 6605 4598 3730 
9768 7104 7715 1664 5016 4185 6204 641 9319 
3750 1286 3841 9132 7914 6166 976 7871 3512 
3352 600 4610 7656 4903 4091 3916 919 8023 
9640 3521 3450 2558 3385 9051 7141 1588 5370 
2542 701 6245 1487 1436 3920 7643 742 4989 
5810 1778 6054 8001 3982 6391 3297 7960 3902 
8266 1058 3200 3422 5501 8754 5913 1927 8794 
9299 3677 3825 519 4451 6755 2360 3033 6444 
9059 6608 5891 4135 1477 6417 2787 5386 3850 
7542 2398 5435 1803 1963 4858 2341 7915 7595 
2276 1654 7375 514 8703 8489 9601 3931 8985 
2496 7323 6433 6303 1196 4244 8223 4860 753 
6414 3400 9617 7872 8747 5124 2077 7889 4827 
147 1718 1773 5665 8183 9727 6353 2992 5518 
939 8968 5786 6276 2202 678 483 5844 9742 
457 419 1171 5603 8371 1465 2333 2803 1071 
6182 4440 4729 8098 631 2551 7993 9291 9792 
9761 5302 5426 3078 1094 3130 4038 6790 4112 
986 7984 6495 6537 2130 3256 1188 1823 8973 
6678 1093 2004 8186 1725 7345 1129 2692 5008 
7249 4850 7677 7320 1353 5126 4177 14 6328 
6672 9435 1327 3892 3822 9437 8800 7895 6783 
8662 9374 6601 8368 8742 3405 7425 2983 9270 
3781 5392 217 6964 901 6779 293 7488 4513 
534 7332 1560 2015 1299 5199 6808 9219 2865 
1009 4800 536 6213 6070 3660 491 2292 7963 
8205 1598 5544 6725 2421 3593 7036 1851 5241 
8248 4416 925 1542 5974 1123 2685 9038 6850 
8459 27 4380 728 3856 8379 3086 827 5413 
6103 2451 6214 4830 7861 4354 4666 4565 8912 
365 6387 3630 3028 8661 799 9105 6587 3076 
1120 7090 4163 3353 2791 239 8353 9760 870 
8296 6573 1953 3699 1028 3880 2045 6397 8815 
7867 1719 4702 9449 4693 5797 5169 2492 1780 
6716 6874 5536 8238 7858 2167 2373 4963 8640 
4253 3878 7886 6354 7591 8782 8019 2591 2113 
5627 116 4375 4751 119 8858 2579 2495 739 
3169 6290 5179 3991 722 2750 772 9477 5111 
2644 1029 3500 4552 4937 9820 3276 4154 4312 
9467 2479 6200 9740 9092 3416 3757 4561 9840 
3587 9769 1050 7752 800 6173 4445 9227 278 
2507 7909 3407 6071 446 2054 1886 5079 4512 
3095 4840 7092 2406 5112 3099 5380 5945 2726 
4117 9869 1051 1166 813 2488 4080 7040 4346 
887 6263 6123 1231 5966 4550 3003 8172 7430 
5304 5776 8769 7071 8642 8655 5917 1656 7238 
8659 985 571 1724 5012 5586 9942 9841 1414 
3927 5405 2166 2020 832 1911 2002 3097 19 
3288 3034 9889 2725 9901 9362 9427 2376 643 
2156 1089 2667 9854 7948 5247 6745 880 3135 
1695 6300 4235 5090 9057 1119 3089 353 5543 
657 6158 5204 112 3227 6212 9650 4670 7779 
2316 4752 1811 4891 829 5762 7859 1340 2400 
8166 9931 8539 2619 1440 1449 5411 8651 9963 
9053 935 5391 4000 3331 9011 430 6841 3952 
692 8269 1923 4408 36 2665 1081 2895 2796 
9196 6693 2802 2063 404 9739 6428 3698 7398 
8360 1354 1177 3451 6978 9558 7983 8534 4133 
2953 6709 7706 5978 2211 8938 1905 3253 4581 
4886 8030 1765 2319 3604 4746 6838 5636 8862 
711 8666 1114 6558 876 7322 2412 8807 4697 
3457 8571 8015 8245 4444 5077 7801 695 130 
1267 1669 9339 3706 5064 5960 9382 2312 968 
2199 5699 2369 5533 3535 1915 698 2873 4468 
8059 8892 142 6546 5195 9325 8757 7856 1324 
4243 5954 1617 4672 812 1740 93 9446 5801 
2393 1938 3876 7625 2535 4164 1337 3663 1330 
1692 7114 6945 7044 5402 311 447 2437 1285 
8910 9770 4419 4013 3301 7494 1967 2944 3771 
6934 2266 2782 3910 3118 4203 3608 7307 5280 
652 4760 4489 7619 8839 3863 7465 2210 3010 
4147 7250 2578 6436 6064 3071 2224 5242 1403 
3075 5039 6076 3584 4979 978 2344 2933 4839 
2016 4041 854 1646 7990 292 266 940 8387 
4987 8336 3840 5282 1556 4890 1047 6792 777 
9120 2248 5987 1582 6977 9510 8676 4191 2475 
3182 6648 6367 7934 2523 1016 1621 2811 8796 
3595 2105 9986 3109 5479 268 2648 9625 6897 
879 7888 8740 1998 4307 2483 1987 9973 358 
5350 2963 3258 2986 8608 4110 8499 6685 7203 
1427 8102 964 3114 8930 1800 4318 7102 3267 
1399 4607 9414 3774 8100 2139 2915 3893 5388 
1995 6629 1515 9128 8549 8860 4362 5107 3044 
2968 9266 5655 3635 2084 9073 4202 5141 2454 
4355 6114 5218 5441 8704 1961 8231 8409 8966 
6647 6100 1434 2500 1775 3833 7650 8801 1392 
4857 57 1637 9431 4383 2385 2635 3505 2746 
81 3748 5160 7264 8874 1388 6998 6844 1584 
4059 9806 8595 300 1038 948 7968 7635 1003 
4640 449 1795 472 7641 4122 3014 2135 4376 
4017 5534 861 1904 7270 1066 1920 6544 3981 
2801 5288 2857 297 8495 2601 3911 1059 8136 
2196 132 9549 1390 4293 7844 7668 1411 1508 
1484 3318 4128 6803 8118 918 6682 91 7166 
1547 6313 7179 3866 1213 9946 3058 5925 7414 
6255 6309 7724 9755 9117 6830 8176 7349 6586 
7938 6250 2897 6462 5438 4173 3801 962 7007 
8103 6226 4947 247 7588 7618 6249 9300 4870 
6670 4062 8927 7905 2471 6708 5897 5468 7180 
4897 2609 7407 73 3360 2503 2290 8458 8623 
5063 8556 995 3758 3065 8392 6820 5773 2270 
6687 9236 932 6580 4358 6806 3951 1858 3696 
2913 1786 3111 7590 3363 1042 8077 4584 3626 
276 4151 8884 4878 3214 1300 2194 8948 7606 
3411 8548 1407 5201 6030 6420 3597 6053 5720 
7516 562 6815 7027 929 8270 7053 8086 5768 
6092 4047 6222 8373 5756 3383 2926 4568 8478 
1025 3387 6641 6455 1774 3067 7490 8105 9441 
1315 208 5290 3334 2218 4631 7932 8060 4223 
8680 4725 7522 4085 4377 3377 4424 8108 7122 
8383 885 8038 1722 5235 2490 8660 5882 5433 
755 1022 7714 9491 3094 9721 9543 7184 7497 
6334 7048 8096 4045 4220 794 3569 6491 4040 
8722 5205 2353 4944 2974 227 2501 1215 5180 
3283 8706 525 867 1677 621 8044 619 6813 
8317 6887 996 308 7514 8596 586 2704 3644 
9163 6400 5752 9930 9899 5983 4096 6515 3386 
8864 8420 7127 3967 4836 4086 2714 8094 5888 
821 9003 693 9080 2946 4874 3392 4876 7367 
1111 6548 6925 3532 802 6325 1744 6990 4655 
5957 3241 8514 9613 2528 956 7404 6232 984 
8319 8283 1895 7017 2144 3926 8525 1007 8067 
5049 2512 8614 8935 2403 3357 7689 5285 1970 
317 8979 8750 4200 3882 4020 9480 2462 7944 
5856 7492 6611 6890 9632 3101 8249 7718 7574 
3453 2901 9267 7091 9268 3955 7519 3827 5782 
1052 8434 5877 1810 8694 509 9712 6357 6799 
7276 2737 8380 2265 2372 9352 4688 4379 117 
4268 2283 6342 9409 5076 492 5929 3570 1652 
1561 5013 591 8657 7501 6421 7243 3207 5722 
5477 7917 4642 326 9624 4150 5525 4426 7304 
6164 1863 3976 653 7846 67 4495 5085 1273 
9605 555 3723 4901 4247 6349 6703 5296 5821 
2697 6075 8573 3726 6545 1992 1965 8735 1831 
3628 3126 429 1867 2069 6885 1541 4323 9509 
7922 7390 2658 8875 2749 6701 7941 7898 7207 
4851 7068 4288 2394 2831 8290 8729 9952 9143 
7096 1659 1251 1282 5804 9616 5664 8204 6778 
1702 7178 3510 5743 1988 2941 3146 1956 2175 
9618 6134 5831 924 1913 7468 7702 5662 3036 
5849 1438 2877 3707 3946 7759 337 6563 3934 
127 8646 676 2616 9896 495 9882 521 3326 
3455 4717 8799 9474 2103 9131 3646 183 538 
4793 9160 2977 7339 2646 7343 6995 2320 7985 
7621 4097 4126 5273 8279 5369 2829 4970 7623 
8932 5306 1801 6457 5812 6974 4077 2254 395 
1818 568 364 8073 8635 3396 5713 6882 6142 
4988 5927 8222 3052 6634 2115 4599 3556 1846 
3268 7365 2908 7070 3745 7688 8841 5547 719 
2686 3837 7025 5371 4003 7466 4412 9723 6585 
547 4777 5499 6043 7393 256 4774 4511 2297 
2950 6566 5565 8313 1202 219 1331 6335 581 
7670 3811 432 267 104 7951 6133 5260 5431 
2914 5261 9212 2899 3002 651 5839 5143 1229 
9390 6507 9964 4554 3443 4280 9487 6900 4932 
5708 45 1753 4278 202 4915 5128 7142 7168 
8695 1065 6423 2154 6271 5495 5948 3746 2509 
2906 6148 6373 4875 6875 1683 7998 5270 7312 
9969 9119 3368 4225 8334 4374 5605 1826 2228 
2560 8173 3708 5644 4314 5442 8581 285 8121 
5463 5177 998 1254 6698 2871 6258 8294 607 
153 791 1770 7629 1343 7589 4731 5208 6857 
6183 9045 974 322 5042 7971 1802 5611 5035 
2504 5455 2688 8822 893 7975 544 3403 8333 
2904 1431 3867 2654 1614 7923 1691 4448 7868 
1085 1013 3933 6415 3961 3534 6028 4309 7047 
5988 2655 63 7469 313 9892 9781 1295 3516 
773 3261 2104 6754 1812 8836 3465 1183 5540 
84 5994 6594 2339 9118 3293 2582 3803 5058 
1208 4061 1798 411 6938 4411 6499 3438 7992 
3565 8466 4105 3962 7355 3888 7642 470 4533 
346 2227 9738 3987 2017 4549 4480 1849 7798 
4240 5213 8175 507 8882 8393 512 5437 7221 
5452 7333 2117 5724 7549 6481 5530 694 4291 
6408 7565 7604 5194 3559 715 9388 8367 1684 
3215 15 3495 638 6795 5732 8361 1194 7427 
2731 530 6102 5009 3783 1389 218 1036 5219 
6475 2100 4548 2937 2776 2457 4649 2303 7749 
5998 5813 9956 5702 2669 3678 7473 294 2772 
4037 6659 4757 7935 4192 4106 4667 1136 6458 
9294 5894 7874 378 535 1651 6743 5884 6209 
3218 2307 7679 7681 5643 9489 3264 2742 3813 
6175 9393 5376 5122 2226 2607 9676 5445 702 
4983 8456 5754 5151 2291 853 2534 3140 6542 
1406 4008 9193 4787 4401 8928 6372 4866 3153 
2962 9174 2361 7150 4028 6950 8051 945 5121 
4217 5946 5996 8330 5467 9130 273 3598 533 
768 1001 1397 7416 6014 5878 7732 4680 9784 
4195 569 8584 2410 3711 1080 8929 7081 9336 
1176 40 7039 7076 2155 3414 762 4682 485 
882 2493 3890 7518 4305 500 4108 1979 1302 
56 2676 1952 4925 5938 3671 2411 8165 2239 
4737 6789 9184 8776 4537 9611 3524 2395 331 
6771 6859 6596 572 9909 6363 7981 1871 259 
1048 243 8823 2439 1526 5266 9076 804 152 
1925 5161 4738 8198 131 441 6168 4257 8705 
1887 8717 3056 8314 3616 4494 5048 9257 5915 
8859 6388 5311 8315 3859 8418 161 7088 1363 
4255 6364 703 8945 3051 5478 6147 2062 324 
9308 7503 7918 4025 8585 1937 8188 4430 7383 
3181 7778 649 7448 7413 5135 7648 5277 9041 
1209 1366 2026 3373 1412 3307 5232 422 2047 
5990 2240 5259 1347 9744 2888 1193 2883 3631 
4829 4776 3539 9970 1348 9668 4205 5344 743 
2506 852 5491 3233 1821 8658 5114 682 6225 
3786 10 5356 37 3873 3578 3839 3430 826 
3673 9993 9108 5015 6321 966 9223 5237 6997 
3156 1222 670 9356 4931 3470 8425 9341 5680 
4018 1358 4193 601 6229 9678 7010 9560 967 
5763 9603 7364 8620 9049 2723 405 4218 2286 
4287 3168 2438 7840 8481 4833 7787 3105 7195 
8647 383 2379 3614 2041 4036 1096 1767 9533 
9592 6939 9737 724 6706 7256 5712 659 8925 
3471 8523 6557 8959 3818 7069 3020 8790 7788 
5504 1264 5517 1108 618 6986 5766 7530 3477 
1845 8820 489 9821 458 6982 5056 1686 1896 
2930 5093 5320 6211 7315 5368 8302 8225 4289 
9486 9891 8035 9181 7942 4212 4918 3344 9536 
1972 8154 4381 4812 5040 8322 645 1834 8853 
5764 708 4801 9301 1872 5738 6150 2238 9462 
551 9962 7317 3107 752 4657 7751 833 2308 
409 2631 4410 9305 6524 2743 2976 884 5690 
1098 4605 3541 5634 8440 869 7555 3645 5599 
3342 6597 6156 3815 5029 9704 6620 9422 6960 
2072 545 7761 8008 1640 3957 4570 89 8555 
8805 5191 9349 7658 6348 4055 7201 3756 5355 
5606 5836 4899 3106 9438 8814 4530 7453 3814 
1260 2532 1819 9924 6569 5254 1232 8430 610 
421 2910 7038 3399 4904 5451 4727 4998 7758 
3497 2990 5615 4541 9750 7823 4597 9807 8119 
6550 4647 4284 2162 9221 9413 6898 6027 4636 
4349 8763 8970 3205 8033 9808 7209 249 6511 
7185 352 9518 4500 2129 3018 3659 9 9887 
3975 3780 9861 2918 5084 1026 6131 3388 1 
9190 194 4226 5222 6375 1511 9904 922 2610 
1121 6185 7864 7813 8502 6259 3871 347 6380 
7074 5031 2809 7662 7296 7358 9512 8278 7772 
7041 8937 9670 114 1082 4724 8560 4142 1750 
6942 4877 8148 977 2716 8479 2230 2632 9785 
7299 1984 839 9893 1579 9358 3417 4966 2087 
1130 7257 9996 3423 1966 5612 5853 3499 3900 
6881 6081 4149 9642 522 3585 1307 2131 1125 
2628 1868 4460 2133 7484 1502 3273 8791 2792 
2071 4608 3653 8889 479 401 5582 8785 3956 
7824 1590 6080 2842 5896 5552 9682 9675 9971 
3244 8419 5267 7725 1557 1505 8203 4618 9327 
4001 3185 4726 100 7145 1421 3110 2163 1261 
1514 4520 5736 2090 9753 6113 431 8746 3571 
5572 3697 7384 177 5301 5709 6241 3790 4181 
8237 7340 6294 5617 6599 8318 3924 5780 1441 
3248 1156 8501 8760 1687 8210 7783 6968 9660 
9746 7523 7389 6422 8124 5294 8654 2605 1929 
9790 6464 1419 930 4473 8743 2921 4337 4114 
6467 9411 2715 1395 4514 4271 3522 6382 4686 
4155 2925 2132 1623 2929 2785 1010 9860 3050 
1070 5577 5248 3266 7066 6677 9548 3632 2825 
5921 3538 1980 9709 6288 18 766 5059 3194 
4049 8321 5862 6389 3189 1150 3391 4236 5733 
8005 5398 7659 4873 4909 3389 8170 4949 3429 
8076 4853 4978 5459 54 1668 3436 7400 8378 
4263 4522 4019 3785 2845 9353 1639 2851 5751 
9587 740 5073 1259 3084 1706 6632 6154 7876 
2730 9754 6472 8880 4745 9684 3142 9717 2275 
7198 523 9429 779 599 9594 3560 1153 2824 
6770 5341 9756 9775 6852 1926 4571 8831 749 
5918 3738 4677 6174 4651 2397 3689 4152 2068 
1600 3869 9811 570 6269 4831 1491 22 4199 
3489 4101 1055 3112 3284 3973 7946 1996 5798 
7701 8496 4569 2562 7113 466 6369 3576 4069 
5256 5044 4125 6326 4138 3426 4252 5799 1350 
5361 1127 1993 3772 9883 9079 1237 6311 524 
5233 8826 9581 3669 5144 9513 9015 9451 4369 
97 2443 763 4528 4081 4626 3027 4558 871 
3563 1103 8396 9745 5703 5937 4660 3482 6094 
363 7077 7261 8411 3390 4856 1771 4352 3577 
5687 7064 2007 1603 8628 2971 6512 4844 4585 
8803 5832 1918 7756 4083 1940 1088 1243 4722 
4644 2505 3063 7012 8622 160 2187 585 7034 
71 681 5419 8984 577 9420 4711 2060 9063 
9728 4540 5944 9177 3543 7734 5148 8798 370 
1334 7247 741 5170 9877 7423 8085 675 4630 
5700 6135 3651 4157 7916 1997 1879 3501 3059 
5562 5876 5872 8816 9944 141 8951 357 8627 