# vtk DataFile Version 4.2
Generated by LIGGGHTS
ASCII
DATASET POLYDATA
POINTS 10000 float
-0.0191435 0.000895085 -0.0363703 -0.0183638 0.00246627 -0.036768 -0.0181328 0.00552745 -0.0368772 
-0.0189063 0.00710571 -0.0364959 -0.0179239 0.0085247 -0.0369912 -0.018272 0.0117314 -0.0364991 
-0.0180868 0.013466 -0.0369112 -0.0187321 0.017779 -0.0365891 -0.0207306 0.000900402 -0.035489 
-0.0176479 0.00141331 -0.0354577 -0.0197627 0.0024111 -0.0356372 -0.0204909 0.00405109 -0.0356374 
-0.0187337 0.00406208 -0.0360247 -0.0199441 0.0057375 -0.0359379 -0.020585 0.00737863 -0.0355796 
-0.0185092 0.00839141 -0.0353016 -0.0200567 0.00911003 -0.0358762 -0.0201428 0.0109238 -0.0358281 
-0.0185323 0.0101358 -0.035717 -0.0213212 0.0135384 -0.0351402 -0.0197902 0.0126775 -0.0360238 
-0.0199636 0.0144653 -0.0359232 -0.0208871 0.0159483 -0.0354047 -0.0180511 0.0149095 -0.0358483 
-0.0193175 0.0161078 -0.0362823 -0.0198095 0.017458 -0.0351922 -0.0201842 0.0191212 -0.0358081 
-0.018407 0.0192055 -0.0355523 -0.0222716 0.00107148 -0.0345496 -0.0191229 0.000896939 -0.0345726 
-0.0218808 0.00281292 -0.0347887 -0.0204828 0.00194356 -0.0340463 -0.0232788 0.00369635 -0.0338736 
-0.0208263 0.00395537 -0.0338817 -0.0187524 0.00316594 -0.034358 -0.0193774 0.00484862 -0.0344767 
-0.0231279 0.00551622 -0.0339731 -0.0216384 0.00525164 -0.0349458 -0.020615 0.006409 -0.0340307 
-0.0178203 0.00547276 -0.0351065 -0.0222189 0.00700953 -0.0345859 -0.0190094 0.00676444 -0.0347396 
-0.0216059 0.00872054 -0.0349665 -0.0199565 0.00838714 -0.0342357 -0.022968 0.00964693 -0.0340875 
-0.0216531 0.0105394 -0.0349312 -0.0200451 0.0101873 -0.0341916 -0.0223211 0.0121851 -0.0345115 
-0.0205005 0.0120786 -0.0344857 -0.0187803 0.0116494 -0.0347803 -0.0186682 0.0135156 -0.0348966 
-0.0202997 0.0143993 -0.0339379 -0.0222016 0.0150394 -0.0345952 -0.0231622 0.0164144 -0.0339533 
-0.0197891 0.0161221 -0.0339933 -0.0182354 0.0164189 -0.0348877 -0.0217787 0.0174106 -0.034864 
-0.0231899 0.0192034 -0.0339429 -0.0215277 0.0192027 -0.0346199 -0.0196925 0.0192042 -0.034086 
-0.0237531 0.000894948 -0.0335448 -0.0216915 0.00102142 -0.032855 -0.0183736 0.000925649 -0.0329383 
-0.0247322 0.00255652 -0.0328352 -0.0229564 0.00230741 -0.0327738 -0.0194266 0.0026485 -0.0327714 
-0.0220973 0.00434225 -0.0326744 -0.0195489 0.00446621 -0.0327352 -0.01767 0.00428009 -0.033058 
-0.0245857 0.00528728 -0.0329386 -0.0181173 0.00599016 -0.0333855 -0.0244521 0.00707272 -0.0330363 
-0.0226484 0.00809226 -0.0332279 -0.0183306 0.00795231 -0.0335722 -0.0242873 0.00885434 -0.0331656 
-0.0213555 0.00933616 -0.0333056 -0.018344 0.00975251 -0.0338032 -0.0246288 0.0106978 -0.032907 
-0.0220889 0.0109717 -0.0332091 -0.0251368 0.0123935 -0.0325209 -0.0203494 0.0113475 -0.0328538 
-0.0185609 0.0113685 -0.0330212 -0.0237232 0.0127874 -0.0335605 -0.0214961 0.0127198 -0.0330052 
-0.0194031 0.0129472 -0.0333567 -0.0176867 0.0134958 -0.0333845 -0.0237294 0.0145892 -0.0335566 
-0.0220492 0.0144255 -0.0329294 -0.0187623 0.0149122 -0.0331578 -0.0246038 0.0161152 -0.0329234 
-0.0214789 0.0161564 -0.0333765 -0.0176834 0.0163902 -0.0331819 -0.0241018 0.017798 -0.0332985 
-0.0223065 0.0178273 -0.0332097 -0.020552 0.0176961 -0.0335735 -0.018687 0.0177543 -0.0337705 
-0.024994 0.0192041 -0.0326283 -0.0212055 0.0192036 -0.0328516 -0.0176344 0.019202 -0.0339328 
-0.0266454 0.00108477 -0.0312904 -0.0252633 0.000892955 -0.0324247 -0.0234433 0.000897094 -0.0317767 
-0.0200171 0.000943194 -0.0322159 -0.0212249 0.00274312 -0.0326206 -0.0255722 0.00399865 -0.0321778 
-0.023757 0.0039009 -0.0321542 -0.0260208 0.00612485 -0.0318133 -0.0231659 0.00606637 -0.0321645 
-0.0214013 0.00598976 -0.0324783 -0.0195038 0.00691594 -0.0326957 -0.0257102 0.00791588 -0.0320672 
-0.0234925 0.00776542 -0.0316812 -0.021062 0.0077795 -0.032454 -0.0196045 0.00882595 -0.0325344 
-0.0179791 0.00874045 -0.0317759 -0.0262457 0.00957507 -0.0316296 -0.0244858 0.00923557 -0.0314338 
-0.0229471 0.0096846 -0.0322883 -0.0253188 0.0110932 -0.0312972 -0.0212503 0.010243 -0.0317661 
-0.0193579 0.0103939 -0.0316953 -0.0232904 0.0114367 -0.0319585 -0.0202028 0.0127236 -0.0317048 
-0.0186448 0.0136192 -0.0318715 -0.0257478 0.0141391 -0.032043 -0.0239823 0.013677 -0.0320179 
-0.0204391 0.0144512 -0.032144 -0.0258184 0.0158866 -0.0316225 -0.0232741 0.0153294 -0.0319802 
-0.0210081 0.0160919 -0.0316409 -0.0195406 0.0168356 -0.0323638 -0.0256559 0.0176108 -0.032111 
-0.0237702 0.0174071 -0.031585 -0.0218592 0.0178788 -0.0314841 -0.0179647 0.0174597 -0.0317708 
-0.026396 0.0191999 -0.0315028 -0.0228706 0.0191927 -0.0321772 -0.019561 0.0186378 -0.0323873 
-0.0177664 0.0192044 -0.032143 -0.0280293 0.000898647 -0.0300676 -0.0248792 0.000893447 -0.0306771 
-0.0217827 0.000895396 -0.0310681 -0.0186977 0.000895665 -0.0309989 -0.0258245 0.00266252 -0.0310078 
-0.0240396 0.0024676 -0.0311117 -0.0208123 0.00235936 -0.0307013 -0.0180292 0.0024757 -0.0315247 
-0.027505 0.00319754 -0.0305471 -0.0223657 0.00315428 -0.0312918 -0.0206981 0.00398822 -0.0314421 
-0.0189342 0.00397045 -0.0311247 -0.0261912 0.00442262 -0.0305516 -0.0246557 0.00515891 -0.0311452 
-0.0220426 0.00510949 -0.0310516 -0.0275482 0.00560226 -0.0305067 -0.0233548 0.00611343 -0.0303497 
-0.0198528 0.00567472 -0.0314497 -0.0248455 0.00701908 -0.0307731 -0.0219705 0.00700109 -0.031109 
-0.020122 0.00724485 -0.0306251 -0.0184702 0.00688706 -0.0312267 -0.0273468 0.00829494 -0.0306884 
-0.0256425 0.00860869 -0.0302119 -0.0211609 0.00867484 -0.0309047 -0.0229083 0.00907513 -0.030595 
-0.0230339 0.0108364 -0.0302735 -0.0204068 0.0109122 -0.0303327 -0.0179815 0.0100965 -0.0305793 
-0.0268572 0.0120094 -0.031119 -0.0217205 0.0118621 -0.0311571 -0.0182109 0.0118273 -0.0313213 
-0.0251385 0.0129733 -0.0308199 -0.0234069 0.0125669 -0.0305671 -0.0221673 0.0135858 -0.0313588 
-0.0270921 0.0137977 -0.0309118 -0.0255012 0.0146688 -0.0303422 -0.0236325 0.014333 -0.0303165 
-0.0199683 0.014119 -0.0304308 -0.0273265 0.0155625 -0.0307028 -0.0242997 0.0159685 -0.0306489 
-0.0215596 0.0149507 -0.0303663 -0.0190436 0.0153153 -0.0314276 -0.0225417 0.0164032 -0.0307422 
-0.0176683 0.0161293 -0.0306037 -0.0270785 0.017325 -0.0309261 -0.0253817 0.0174497 -0.0303433 
-0.0202019 0.0175049 -0.0308337 -0.0277492 0.0192009 -0.030318 -0.0242297 0.0192001 -0.0310046 
-0.0224441 0.0192068 -0.0304313 -0.0207057 0.019205 -0.0311256 -0.0189434 0.019202 -0.0307848 
-0.0293104 0.000897711 -0.028812 -0.0232207 0.0010005 -0.0299999 -0.0206338 0.000898187 -0.0296718 
-0.0188954 0.000894724 -0.0292148 -0.0287031 0.00248098 -0.0294141 -0.0266268 0.00191638 -0.0295876 
-0.024865 0.00226587 -0.029529 -0.0231343 0.00274705 -0.029585 -0.0191211 0.00246738 -0.0301006 
-0.027161 0.00364969 -0.0288473 -0.021561 0.00361323 -0.0296393 -0.0174904 0.00351464 -0.0301629 
-0.0285889 0.00451383 -0.0295263 -0.024822 0.00405758 -0.0294215 -0.023092 0.00454416 -0.0294939 
-0.020278 0.0048376 -0.0299194 -0.0293377 0.00599349 -0.0287869 -0.0265489 0.00532448 -0.0290448 
-0.0248736 0.00585304 -0.0294094 -0.0217302 0.00609026 -0.0295807 -0.0185541 0.00543333 -0.0301529 
-0.0283195 0.00707265 -0.0297996 -0.0264477 0.0069172 -0.0299703 -0.022724 0.00760795 -0.0295716 
-0.0287857 0.00844592 -0.0287418 -0.0270348 0.00876963 -0.0289894 -0.0244763 0.00773058 -0.0291566 
-0.0210301 0.00810627 -0.0292099 -0.0181434 0.00823161 -0.0300639 -0.0282349 0.00978674 -0.0298659 
-0.0216134 0.00980814 -0.0295925 -0.019598 0.00929574 -0.0302672 -0.0290881 0.0111666 -0.0290368 
-0.0264795 0.0101776 -0.0299532 -0.0246618 0.0101583 -0.029914 -0.0273551 0.0116576 -0.029434 
-0.025561 0.0116629 -0.0295414 -0.0194 0.0119489 -0.0292695 -0.0176319 0.0116854 -0.0296284 
-0.0286813 0.0128707 -0.029444 -0.0262364 0.0133187 -0.0294191 -0.0241514 0.0125965 -0.0289406 
-0.0219903 0.0132685 -0.0296051 -0.0184517 0.0132018 -0.030137 -0.0294041 0.0145352 -0.0287276 
-0.0277282 0.0143903 -0.0293457 -0.0285954 0.0159697 -0.0295022 -0.0268742 0.0159275 -0.02898 
-0.02497 0.0155666 -0.0288801 -0.0232145 0.0157146 -0.029237 -0.0190811 0.0154814 -0.0296447 
-0.0206855 0.016265 -0.0294663 -0.0289875 0.0176833 -0.0291423 -0.027186 0.0178869 -0.0292276 
-0.0236702 0.0174388 -0.0297984 -0.0215752 0.0178042 -0.0297195 -0.0185709 0.0175893 -0.0300838 
-0.025626 0.019198 -0.0298777 -0.0238046 0.01919 -0.0292596 -0.0203963 0.0192005 -0.0293571 
-0.0178119 0.0192045 -0.0293893 -0.0305405 0.00100278 -0.027504 -0.027457 0.000896664 -0.0283675 
-0.0256621 0.000911531 -0.0284316 -0.0238687 0.000898614 -0.0283337 -0.0220871 0.000898239 -0.0286132 
-0.0301043 0.00268169 -0.0279801 -0.026564 0.00235263 -0.0277659 -0.0230508 0.00243484 -0.027816 
-0.0213064 0.00247988 -0.0282608 -0.0195134 0.00234214 -0.0283526 -0.017794 0.00227893 -0.0289016 
-0.0283402 0.00290737 -0.0277042 -0.0248607 0.00291797 -0.0278615 -0.0190062 0.00393439 -0.0290179 
-0.0300034 0.00447579 -0.0280871 -0.0282552 0.00497279 -0.0277798 -0.0254012 0.00462899 -0.0278186 
-0.0210702 0.00499939 -0.0283159 -0.0233432 0.00625626 -0.02856 -0.0198286 0.00636369 -0.0290938 
-0.0183908 0.00557355 -0.0283676 -0.0301328 0.0073715 -0.0279545 -0.0279199 0.0068395 -0.0280736 
-0.0262065 0.00734334 -0.0282417 -0.0217873 0.00698873 -0.0280303 -0.0175378 0.00717652 -0.0281847 
-0.0193104 0.00815344 -0.0286998 -0.0299137 0.00973103 -0.028188 -0.0280881 0.00998694 -0.0280851 
-0.025355 0.00923053 -0.0285485 -0.0234886 0.0092489 -0.028904 -0.0177537 0.0089608 -0.028314 
-0.0264016 0.0106715 -0.0282292 -0.0244446 0.0109421 -0.028318 -0.0226537 0.0107899 -0.0285098 
-0.020678 0.0102866 -0.0281385 -0.0187949 0.0102781 -0.0289919 -0.030509 0.011317 -0.0275386 
-0.0267267 0.0124346 -0.0279452 -0.0212056 0.0117802 -0.0289807 -0.0299407 0.0129108 -0.02816 
-0.02818 0.0134898 -0.0278365 -0.0225688 0.0125287 -0.0280772 -0.0200802 0.013543 -0.0287315 
-0.0184973 0.0129661 -0.0280984 -0.0267332 0.0145527 -0.0278276 -0.0250896 0.0139189 -0.0281757 
-0.0233219 0.0141223 -0.0284162 -0.0215463 0.0145317 -0.0284035 -0.030339 0.0160013 -0.0277305 
[...]
POINT_DATA 10000
FIELD FieldData 7
id 1 10000 int
3829 892 6439 4545 1756 8185 2052 9809 4160 
5688 3493 1068 5120 6814 4407 4222 2208 6350 
1902 4188 5104 4470 6741 8811 2947 4039 8328 
5252 637 1693 2418 9925 4555 7174 3222 757 
1185 3487 1023 4148 8699 787 1885 2409 1239 
7144 7757 4905 4350 807 4529 5787 8597 706 
3605 8262 9819 9657 5656 1174 4359 7373 3336 
2671 8547 672 5967 9576 3804 1906 6151 4452 
3141 5081 343 1805 5262 1303 8447 2231 6320 
8876 9905 3672 3762 9749 4319 1596 6675 4484 
9468 4432 9075 5716 746 7241 7225 8784 9401 
2044 3358 4794 756 7755 8588 3972 4864 4761 
7269 9547 9200 6461 2354 8217 2092 159 5171 
6217 3073 7295 4447 8306 4353 8708 8146 8643 
5325 5422 1075 9238 5808 7802 109 4504 4123 
5826 7721 8254 310 8450 1045 2396 9001 4883 
3240 6477 3351 1291 1316 7281 615 1731 2805 
6870 6352 4393 2031 8263 9111 9517 548 8610 
4910 9202 6780 7218 9314 6181 7136 7137 9626 
2519 8285 5496 789 2034 6661 5052 7610 3150 
3688 2176 783 8879 4144 7531 5457 6845 550 
2620 8687 7862 4765 5045 7769 6847 4955 6476 
6883 5324 723 3259 6562 2882 5851 3770 1467 
4478 2277 5697 5864 1234 733 3045 150 7667 
7351 3988 6994 7138 9505 1883 6301 3346 3159 
1860 6510 6292 7395 3049 1587 6846 2606 5094 
7223 5123 1703 3144 88 6858 2587 8461 1655 
7255 1847 2810 4936 5131 6969 8046 8475 318 
2672 5097 1072 3474 1077 7562 8408 5187 9494 
5569 8668 3384 3316 3934 8872 6840 2816 1097 
7947 8273 676 7228 23 3665 7965 516 1712 
233 9188 1469 2769 1461 4583 2985 7265 4402 
9472 4310 7964 9989 6974 9025 4804 9798 8745 
7747 8295 8672 5743 3793 3308 3330 7126 8452 
5604 7673 9406 2557 7534 222 5298 140 2114 
7834 4498 7819 350 7733 145 7354 7193 8441 
5924 7920 2447 7097 8101 4507 3623 1284 9493 
5829 8780 5713 9585 679 6221 4338 4791 2142 
2554 1711 1659 3566 375 538 9026 1577 8788 
3942 6710 8510 5387 6413 5212 264 4334 1662 
3339 6392 5865 9464 6604 4758 5905 6624 9231 
4165 3561 3418 6937 315 1319 9912 4654 3768 
981 7148 6412 1186 1991 1867 3824 1155 8827 
2597 709 6664 5781 3546 7633 6718 4119 7631 
6376 6509 8942 4476 1667 7003 9061 4535 1346 
9089 362 8667 6474 3424 5828 6662 9793 8348 
797 847 6696 440 840 9302 5886 7627 5735 
9708 4058 9367 9104 6353 7614 6923 8902 4378 
3715 8084 9697 2465 6786 9553 1878 6941 255 
2037 2946 408 98 8058 1297 1157 9599 2905 
8018 2923 1408 6017 1504 5109 1499 165 8358 
4997 5782 2841 5497 3849 3652 5295 8465 9514 
2573 8799 2426 2214 8731 9311 3848 5118 3454 
9990 2561 539 8354 5272 1608 2753 2516 4821 
4275 2739 4921 2932 1575 3719 8327 4156 6371 
9654 3979 8288 6944 2663 7854 3892 7045 9812 
4405 695 1763 5991 3270 92 3921 1110 1907 
770 3650 7566 5613 5088 6236 8674 9137 374 
7763 9197 5043 7816 1874 372 9099 6351 2863 
8162 9952 9475 4233 9612 7220 7160 622 8819 
2083 6714 7152 9510 6699 2474 5086 7292 2852 
8844 7336 3820 9691 5524 1917 8522 3716 1368 
7636 2317 1818 9525 1011 6947 3827 5286 4587 
2246 7896 2712 4992 3001 2866 6473 2287 776 
683 7546 6265 83 9506 6903 8429 5439 6729 
1351 3052 1488 3846 2299 9562 5037 3260 8650 
9165 9834 1283 707 2105 4169 2032 1594 6508 
9604 3397 5011 5183 5091 25 5903 7702 5268 
842 9498 5999 5783 4162 1761 8834 8977 2146 
6007 3449 2304 8468 6247 568 8692 6432 1099 
9570 8149 9319 9935 2472 7536 7656 4601 9879 
7294 5790 8375 9727 7921 2713 3821 2991 4543 
1524 2181 6703 680 4416 6470 2874 2595 9896 
5053 689 501 339 2079 8999 8049 6025 1039 
5610 6152 1400 1956 457 1889 2766 911 3862 
9700 4219 2773 2249 1583 8934 1620 8912 3940 
5483 80 5936 482 2147 4974 1308 1359 7738 
3490 2082 3167 6004 6442 2130 3764 1439 9492 
9552 6958 8106 1661 843 3923 4849 8221 5911 
5506 169 7474 3268 1438 9046 434 7520 8040 
1270 4187 4042 3835 5329 4818 5326 1496 4215 
3799 1381 8507 8368 7356 8988 3272 3991 641 
1530 1471 3734 1913 9874 1371 7426 4559 4610 
6880 6281 112 8422 8065 834 3191 9826 2049 
3906 5755 3282 5916 3338 1422 8679 5415 5718 
510 3009 124 6119 2894 5922 8754 2760 5619 
914 4097 7684 8957 5225 9616 6912 3086 4917 
3422 2876 9334 1135 582 9921 221 4710 5472 
9161 1891 2711 5555 7398 1962 6849 4961 4848 
9090 6484 1429 66 5742 7030 1386 5528 6783 
3275 953 1535 5696 7232 6057 2545 353 4197 
8011 2390 4629 4679 8985 7914 6414 2002 6707 
5831 5404 2190 5124 94 3234 8073 9822 5574 
7943 293 3579 9180 941 6804 2865 4999 4603 
3357 5221 2043 1811 1915 9372 5263 9664 5265 
4154 1152 1588 4532 6862 9869 3200 9787 9328 
9073 3903 7988 6556 8875 9416 446 4080 2065 
1231 9596 9577 6608 4971 4266 2759 2525 8282 
2004 5966 705 589 8457 7551 8655 3253 3635 
4264 3311 2466 2401 7690 5289 1719 8114 5952 
7952 3485 2599 2834 5536 8940 912 8022 5558 
1654 7515 5914 2382 2965 5621 6204 5533 4035 
663 6711 7380 5461 832 2156 9280 965 5737 
3521 7488 5627 2893 2420 9655 2844 9132 9152 
6312 4695 6613 6468 4488 4958 9752 1581 3535 
6972 4633 988 4678 8459 8539 5350 9324 1507 
9516 1465 7752 9011 8071 9721 6537 9991 799 
8001 4565 1002 9643 6055 6693 546 2054 1416 
6821 5281 5462 6071 3286 4133 2321 6878 7271 
4006 2364 5537 7320 9824 9771 4324 1042 2979 
7677 8709 8639 1720 2278 6246 9666 6433 6672 
7867 5586 8862 5636 3724 274 6874 5012 1224 
5942 3931 2376 1911 3143 854 3097 8336 4179 
5306 376 4253 2419 5960 7748 4130 99 3794 
780 2983 2566 2885 5544 3276 5195 9325 2374 
993 2469 627 5179 3325 9519 1409 1425 7370 
7646 3382 5241 3757 9446 55 3491 3404 3816 
4734 1405 7235 4840 6945 7044 3174 3409 6182 
5302 6495 6117 3771 9715 6831 8201 5258 4117 
652 3547 9299 8642 3698 2999 4048 3513 1093 
3350 2791 5710 3737 8802 9714 7465 6250 7884 
8557 7352 1380 2276 3071 2224 7154 2783 8473 
7766 8854 8081 6716 8966 4979 9556 2020 7363 
2345 1780 7650 2890 4382 4168 5064 3706 8462 
2024 4308 1046 9768 8747 7801 7264 1552 8691 
4646 9077 6506 6367 2477 9219 3014 5786 4519 
526 8707 1598 3951 8757 9713 1950 6054 1923 
8248 5479 2786 1755 8371 3416 93 9931 1920 
5720 8301 9160 7639 6685 9549 4525 3648 6065 
4408 3118 4440 5616 7945 4320 6629 8661 9414 
4663 5493 5316 6734 2084 6309 7917 2061 3850 
3229 8499 8534 5660 7820 5098 6764 7542 1905 
2210 7071 3863 2867 1638 1219 7895 14 4746 
9078 4044 7425 1470 2412 8927 3584 8409 1342 
2315 8061 8640 8571 4987 7714 2995 3841 8738 
8015 8245 1020 6761 6070 6977 3094 5160 4153 
9598 8818 3089 7934 5877 4311 5625 2028 6635 
7869 9066 8556 995 4376 2103 3739 1216 4752 
5773 3860 6915 3947 5954 3340 3595 3644 2601 
7621 8559 7643 4093 9186 4178 879 8740 7888 
9003 6544 6298 1618 7789 8693 2944 4110 2808 
2177 1058 9761 4294 5756 8086 6123 1967 1411 
4251 6270 9720 7657 958 7341 7414 6313 6455 
5788 2252 5655 5776 208 7938 3774 8476 3834 
3459 4572 1443 6328 247 4355 6838 5218 5245 
1151 3833 2492 2021 9279 7323 8231 2106 3319 
1375 8675 6808 9427 9431 9491 2353 7424 2244 
3730 5247 1388 3936 2563 9447 1210 6745 794 
9271 7901 6213 2369 1637 1052 2372 1848 4661 
6750 9445 5111 9820 7590 1215 2135 4756 1696 
5637 5987 591 6806 1403 1449 9742 1427 6360 
6826 7563 8634 4699 9986 3411 5630 9770 9792 
7114 8270 5768 7516 4002 793 2745 3331 4607 
8373 3114 1218 3353 7984 4204 3361 7307 8769 
1315 2897 8735 8398 6882 7713 9634 4850 6255 
7404 7101 6633 254 2166 8815 6397 3604 8849 
2242 7103 7595 4970 3088 2591 7322 7905 5882 
4166 7089 435 8801 9867 6763 9854 8669 4890 
4062 7718 7433 9734 7872 6779 2644 2016 5063 
564 2660 6546 1582 7180 3360 796 9039 4299 
1119 7948 8595 3283 8706 6503 8331 8261 8623 
3111 3246 9277 6044 9640 3920 6850 5425 6310 
1851 6897 5983 5477 3763 2362 3407 1692 8495 
7668 3532 2125 1290 7912 6755 8269 6682 821 
5486 7844 7983 2488 5957 3299 5185 2726 8794 
8910 7304 7262 9408 7369 9059 4451 8938 9196 
1895 6177 6445 2787 8926 3590 6263 4725 2011 
1884 1877 7915 6558 2512 4947 6625 6340 5940 
8489 5405 6670 6114 6226 7944 5772 6777 9601 
3034 9194 6817 1921 6109 9889 4045 5047 4941 
7591 3377 4220 5180 658 2001 4246 9362 5204 
9339 4070 2355 7108 2282 9074 600 2579 5205 
6890 7635 6648 104 270 4437 7774 9092 4122 
3109 586 5929 4501 3158 8155 7909 7625 9038 
276 3326 297 8338 4096 7486 8266 2685 8420 
2546 5163 2884 3028 9973 2507 7053 2416 8544 
1733 5023 7090 1399 4655 6428 8973 918 3241 
5652 2615 8247 1995 5386 5925 4163 9358 7583 
7810 5833 12 7249 2968 6462 7017 8060 8908 
3960 3068 6118 9228 3025 8800 5522 571 6061 
8108 8660 3990 3371 531 5169 1724 8750 7919 
7399 5250 901 1298 1961 4944 4175 6895 2254 
9730 9617 8782 985 9484 5875 1916 4185 4041 
3457 8387 1492 3714 5664 525 5050 9210 4341 
3946 8558 6165 6820 900 9051 8096 3748 4358 
4878 9163 7140 496 6565 7141 1066 1406 6342 
2664 4274 8205 4059 7142 2737 3455 1109 5240 
305 8379 4830 7641 1786 7127 782 6223 980 
6538 7046 1987 67 5085 6053 3797 9125 2581 
3597 7985 1273 1824 4248 8168 563 3387 5290 
1173 3334 3636 6678 7494 5304 3628 5073 1586 
1475 3851 7134 2014 72 1699 7619 8105 9352 
8204 7922 5002 1789 2045 2341 4424 7122 5645 
3993 9286 4177 2771 6064 3882 8169 7697 4963 
2831 7242 4510 590 994 3352 2316 5897 5084 
7574 4020 7624 5909 2274 8019 8722 1810 7540 
8308 3456 4896 4300 8968 5699 9632 3548 2568 
3148 4937 8434 8380 6813 5745 6400 2508 3575 
972 6127 1740 5143 8246 667 2384 1900 521 
7270 1393 3967 4773 6704 7779 5603 3626 8596 
2283 731 8153 8864 183 256 465 5308 8715 
3856 8511 6925 6164 7343 9365 9127 5900 6429 
6214 1965 8279 6349 7482 2896 3047 4884 2483 
964 2144 5164 1788 6417 489 7339 6448 3476 
5824 69 6586 1541 8076 8568 3506 5689 6612 
3037 5235 7946 8614 850 5234 8304 6018 5812 
4731 7466 6926 4490 8232 7409 515 876 8729 
8935 6100 1565 7054 1556 3101 8474 7849 3556 
3362 6601 5077 7091 4616 3129 4670 8892 2265 
4309 7765 3251 3589 323 6451 6290 2501 8694 
3875 6563 4182 2107 6663 1047 6799 8548 7319 
2036 8023 9806 2704 3465 6485 214 1031 9899 
3746 7014 4395 3611 4313 8657 5273 3322 8062 
4126 8477 8166 2535 5888 6420 4901 5722 3380 
2197 3095 2857 813 2228 5939 2528 1083 2336 
7829 3630 4223 870 8319 8121 6329 2295 6347 
7349 3058 5107 5530 9509 3531 2428 3646 3406 
8103 4003 6249 2403 8841 8239 1553 949 4755 
9563 3927 2490 7898 4200 6752 4962 7581 6798 
753 1286 3122 7362 3226 5856 4598 9057 57 
7178 8249 9143 9112 151 4258 8858 81 6335 
8903 7786 9183 4895 1785 6964 948 1331 2261 
6209 4959 4879 536 8945 2543 2939 4552 9267 
1229 6507 6900 5775 3461 163 7963 3512 3169 
9390 2239 1436 3182 5128 7501 4932 8646 9763 
8953 4000 4047 1812 5495 5995 6800 1778 4495 
5442 4927 6059 4701 2804 9102 6790 1025 1801 
2636 3419 1437 3832 3090 9558 1547 4247 9119 
8850 5526 2414 5978 7430 8581 7785 9307 7794 
5024 1901 5008 4323 6709 7549 2871 2626 6244 
1749 3682 6987 8703 4858 2578 7589 1343 6788 
7443 7548 5990 5611 5354 9235 1022 6372 8648 
2504 1718 9392 8603 3125 373 1894 8059 5804 
727 2175 7793 4835 7024 3400 5199 1584 9236 
5884 2613 1309 2199 8392 308 313 6499 5825 
7925 9375 2789 2217 812 8836 6519 1123 728 
7951 472 4411 2134 6233 4509 3033 3593 9625 
2400 5288 6594 7782 3588 3212 2030 3928 142 
492 5948 127 4632 2777 2895 8608 9969 1182 
2693 3726 2729 6286 6949 5553 1233 3192 519 
7932 4568 8928 5684 4741 2491 1476 1823 8478 
6885 6545 6698 5899 8294 9342 2957 4593 6322 
2692 8839 6092 2069 8176 6481 6258 7615 6267 
9470 6076 5126 8067 7688 9091 6033 102 328 
4435 6708 2319 368 7567 5797 2496 755 9723 
8333 9254 9317 6126 3405 8091 9901 6043 5219 
8677 1964 1032 4385 7048 8458 3618 4793 119 
657 1013 4192 5988 8664 7342 2728 1679 9386 
7968 337 5994 1855 1171 5708 7804 9185 3518 
2475 6580 5058 84 1236 332 5076 1350 1521 
4061 7131 6365 5810 9740 6030 4426 7805 8609 
7959 688 86 8527 2796 1285 2437 4620 1863 
5347 6591 6863 7846 6548 6115 2935 5388 7367 
6457 5117 4648 1189 3287 5712 8573 1254 5996 
8455 1817 4362 7972 7490 7957 9448 5332 7735 
3396 286 6436 5141 7427 5208 6475 7900 1676 
6334 1007 5547 1979 7413 7471 1554 4579 5564 
1005 940 9892 1431 9336 5278 2236 2904 7393 
4412 576 7412 2755 1629 8044 6028 7469 9618 
6134 9283 8905 1625 2179 4737 3374 4330 9212 
6754 9964 743 5456 9878 8686 6158 8796 7276 
6363 7533 2320 215 1050 3876 996 202 152 
4599 8391 9443 4456 4672 5915 5161 6358 9096 
1927 8094 6938 2646 4875 6946 7287 7006 1649 
4038 6222 5565 4105 2560 2585 1143 7928 8748 
1043 9291 9739 5270 6954 5556 8526 6377 1345 
5945 6990 6803 4240 7976 810 954 6910 3221 
1510 7550 1248 2839 8296 9266 6075 5724 984 
4291 5551 6001 4174 204 2050 7250 8367 7791 
8635 5455 9010 1271 8666 4860 8704 7081 530 
15 6588 9540 1114 4444 9437 218 649 1773 
9956 9273 2776 5492 5061 8979 2950 7047 2115 
149 1666 4839 932 1858 5894 7903 9154 406 
4784 4468 3678 8407 8415 364 2913 619 243 
1925 1610 8470 2764 6920 5224 2986 4915 3337 
2643 6931 935 132 7514 3056 1033 9710 5071 
5844 919 6200 7168 6271 8376 6500 4344 5444 
2085 2194 58 5859 9940 5391 3893 7798 6373 
346 7387 7580 790 3656 2394 2211 1992 285 
5048 617 9946 131 2926 470 5946 1326 5501 
2245 1477 6646 3044 4666 802 1397 2406 2468 
8565 5878 3355 8890 2454 962 1684 3926 8188 
6706 4124 2955 7107 9775 317 7971 128 3687 
491 2500 1802 7454 3607 5167 6029 3036 3534 
6102 2564 8337 9530 6641 4191 2297 882 1133 
968 7874 267 3524 8255 4952 2268 2499 2616 
3065 1856 651 5839 1302 7686 1846 939 1904 
8948 6515 2395 8853 4413 167 5510 3385 2742 
1208 3264 8090 1628 2430 8825 4487 9487 4401 
3813 6950 2314 4665 7155 9356 3987 4257 4485 
278 3392 6542 8393 3601 7429 2744 1599 9847 
8014 673 1440 3992 9244 8118 5013 5525 4314 
5110 795 6085 1947 384 3267 956 3140 1826 
7724 2324 4170 9252 8616 7092 512 3466 7911 
4419 7618 6368 3496 8100 9206 1831 8197 8805 
4394 3008 6605 430 4891 36 7672 4928 8929 
8555 4151 6167 4640 3381 633 5527 4497 3295 
6483 6973 2552 7564 4172 400 8341 4903 8749 
9919 6717 7999 9095 7600 336 4131 9858 3982 
8178 1054 1053 926 4027 5176 8955 6784 358 
2119 299 5615 7390 7561 6356 497 4425 9270 
2333 664 3938 7942 6037 205 2757 3779 2263 
2076 6492 4969 2952 2736 6359 395 126 6568 
6825 9158 1746 8593 7547 4477 5644 3775 383 
6959 1190 736 5471 5748 1029 33 463 495 
7893 819 805 1515 3004 5370 2806 2149 3750 
7513 5843 2647 6766 9366 2943 2331 1790 7870 
6282 6504 1382 3880 7007 8525 4195 6857 6183 
8222 201 3343 7070 5371 1770 6557 7463 5177 
3410 7858 715 4803 3042 217 1389 5035 56 
8213 433 3812 3537 147 8889 5277 3057 4551 
245 1669 405 4448 5452 6133 7473 7036 9477 
9781 5344 535 5368 5653 601 4466 621 9393 
1048 1428 852 354 9409 5114 1641 4512 6894 
943 7027 6875 5754 1798 9433 8659 6865 2618 
4128 2688 8717 8456 2962 1222 3685 2451 7243 
9193 3962 6765 8355 3425 242 6983 4293 3565 
2227 7753 872 2829 4983 6364 2694 1120 3638 
1452 1744 7761 7150 5463 1313 1592 1516 9441 
4920 8172 8860 2716 694 8129 2438 3796 6570 
692 6658 5016 280 4202 7629 4430 2410 8165 
3606 7407 547 5517 1317 118 2329 7025 9737 
5211 2840 6466 6130 7975 1036 2493 8959 3818 
906 2807 3505 3811 6659 422 8244 3722 3995 
154 861 1533 7681 3867 1197 2649 976 8676 
177 5320 9891 7836 3798 3696 6596 9181 8917 
4381 9262 9769 4800 6844 9489 572 6742 4392 
4489 4278 826 2183 1163 2184 334 1071 1330 
4998 5643 9993 5552 9182 6103 4318 4876 5680 
4390 551 7792 2290 447 8466 8620 1670 8115 
1453 2063 5201 294 2361 9738 2848 1854 1779 
7468 7102 3608 7416 607 2062 9407 792 4139 
253 1383 7100 9174 3368 7195 8362 3000 9369 
1765 9388 1868 7648 569 4877 7687 9247 6528 
5956 5441 1080 1264 7448 6684 4239 6063 7317 
3414 2930 8448 6917 450 4486 1619 4777 2373 
153 1691 1085 2155 9041 7929 6740 9615 3578 
8481 7935 378 558 6789 1845 1232 2811 8226 
6743 1041 8212 2200 1324 227 5540 5372 8992 
9807 3207 1487 2914 1871 2339 8314 9679 4608 
7539 1621 4217 4738 4612 1172 8728 9650 2619 
3386 9257 1683 9813 9909 3902 7555 1849 3541 
2743 7461 5896 6099 1337 6423 6148 5267 6615 
6978 6387 4533 314 4360 8330 324 5736 3571 
8698 2456 5690 4757 7706 507 6014 5437 7644 
4575 2809 5605 6354 4260 7238 1937 89 4570 
3785 9140 2094 514 4693 5998 4548 8361 3495 
1745 4867 6986 7033 4244 5312 3783 5314 5469 
3373 2669 1108 7729 9660 9885 2703 1576 8302 
2026 3477 1176 40 6867 9794 4125 2303 1295 
599 1027 9843 1624 4751 9930 2104 9294 2990 
6597 1340 9611 4106 682 4727 3072 4669 6614 
9876 8119 8143 4577 929 2421 1651 2607 2906 
9808 5376 6027 803 2154 4028 7010 9682 7978 
2218 1407 4480 6524 5151 8419 6623 8283 5817 
404 4346 2196 4787 9603 6 2634 2360 653 
5311 1121 5634 897 887 4462 9760 5121 1001 
8647 5467 4001 1784 1129 6842 9942 3451 7074 
2172 1414 523 5285 6715 8278 5679 6006 5534 
4243 4697 638 3814 6049 4766 2167 2609 7868 
893 7530 7378 7803 8223 4349 1491 2506 9893 
3890 3569 1136 1193 9461 1412 5531 6444 1958 
2725 3758 5261 3773 2532 2667 3673 5254 5818 
462 891 3254 2873 1677 5445 9221 2792 8035 
6467 302 4134 4584 9053 7519 259 1445 4391 
9076 8033 4018 8198 8785 806 3301 3910 7364 
3112 4929 804 9676 6168 708 3156 5868 9081 
8102 4549 2714 409 9779 7998 3130 7088 3168 
7145 967 498 8315 703 7603 3427 6069 8961 
7345 4631 6960 6380 3664 1495 7840 1201 3128 
4147 4085 5732 6939 7772 4428 6830 4870 8030 
2731 4055 4142 1260 7955 1299 1434 1194 8560 
9785 2326 505 4721 1686 500 7201 7340 3873 
9374 3961 1896 6045 9994 4373 3952 432 1972 
8132 2676 9184 1349 47 9120 5090 2901 4280 
6859 1834 1125 2925 4212 6261 7720 331 9668 
9462 749 8154 1795 4379 4086 10 37 3888 
1872 7347 2628 4380 45 6997 8136 6421 4193 
966 3780 2306 5921 4031 6521 1101 1800 763 
5266 3616 9108 6480 581 833 9560 7221 5862 
2836 5515 1213 3383 8904 5380 3076 6325 2072 
4978 5213 6224 4687 6452 9755 6147 545 3733 
1237 8580 8969 3801 2908 8807 4181 8237 3718 
6532 724 9916 4377 5282 3181 6081 7069 3924 
7041 3736 5433 4511 9587 5937 859 4332 6211 
8523 5709 8148 13 6491 3837 4904 6348 7257 
1952 5009 8767 4040 6415 5451 8743 2102 4776 
7261 1460 1038 1617 7315 2071 226 4651 4688 
2131 2284 4644 9482 8430 114 2582 9301 6898 
6611 6887 3261 5356 9518 2918 1833 7725 6269 
3981 1771 6131 8970 1462 7993 3067 9341 2129 
8051 766 312 3018 4255 4874 3587 9678 9887 
9495 884 4150 768 5944 937 3099 429 5029 
3105 6156 6389 6185 1127 194 7476 1973 5007 
2608 7518 5599 6408 3614 4658 7327 544 3647 
5438 9512 6241 5144 8210 5700 2746 5317 6583 
4108 4263 2849 3857 5232 6569 8411 3756 5721 
9300 3822 2462 4626 7744 5499 7889 5056 3631 
762 5687 1321 4120 3955 5431 4289 9996 1603 
1940 7492 698 5260 4205 5259 1348 1010 1551 
4541 518 1089 63 1739 2397 3050 9712 421 
4037 401 7397 7847 9049 1938 2534 3430 9861 
3266 585 3975 4767 5237 5015 249 8705 9456 
6902 3116 7859 1079 1300 1363 7355 4801 5059 
3576 1358 5901 5191 6404 1166 1511 8823 1111 
2286 2976 1514 524 9250 3723 2458 1081 4287 
6388 2723 3815 1993 252 2226 9117 4374 9422 
6620 5031 1668 7503 4635 7080 1963 5042 5194 
4019 3711 4198 659 1970 4724 2851 3059 7256 
5345 2204 4820 322 2632 3806 2933 2654 7079 
7916 5342 6259 6687 2937 1202 3453 4899 1401 
2445 3663 773 9486 5294 2883 6512 2750 1909 
5582 1024 1653 2312 6982 2162 5491 9413 779 
7871 1753 4083 9735 4268 4499 2558 449 4460 
4152 752 1055 6550 6652 3803 6321 4657 8321 
3189 7701 2648 9624 4711 3538 2697 2017 4252 
4017 5518 5867 9305 273 2090 1261 869 1775 
9227 998 533 4225 2533 54 5233 8502 1267 
452 3965 3559 7604 7383 9015 8111 219 1392 
4173 9592 8925 3020 5489 6942 8396 6464 2686 
4630 5803 702 4235 5703 2503 2471 2047 5770 
3024 1209 9268 3500 4925 1706 3142 8124 4722 
8658 4155 2730 3194 6229 2801 7245 6080 5 
1722 1059 1561 5938 1065 7019 2078 6337 1390 
268 645 7823 5248 5685 3956 2041 4554 7992 
1 9327 4101 8496 2945 1074 3470 5752 4069 
681 6019 8586 9963 1523 853 18 3265 2243 
3342 5733 3426 2060 608 6056 8882 7400 4605 
2379 5459 2551 5079 8746 3871 7247 3215 3745 
4886 791 9784 6795 675 7670 141 9201 2559 
292 9045 7778 3106 7422 1103 6154 7497 3471 
1639 8501 26 4649 4682 4829 6632 1223 7076 
2921 8628 2140 5702 7184 6458 4597 4686 6770 
5341 2007 3423 710 6245 4149 7066 618 8575 
1821 4473 9429 8513 6175 4307 1183 3839 352 
71 772 4812 2308 4410 3243 3869 570 4698 
9811 5820 4985 2505 2292 3438 1652 6653 4494 
9704 7312 6815 2803 3388 2187 2089 311 9418 
4520 8440 5798 1243 3708 3645 8900 1675 3403 
2182 3598 5478 2610 347 9308 6311 741 2770 
4774 974 1096 8008 1362 3840 9841 8038 5751 
2635 5039 1750 3027 7783 5612 6599 4129 4623 
266 7453 9438 9821 3298 1130 9745 2929 3560 