# vtk DataFile Version 4.2
Generated by LIGGGHTS
ASCII
DATASET POLYDATA
POINTS 10000 float
-0.0186464 0.0010215 -0.0366374 -0.0185628 0.00419902 -0.0366756 -0.0186501 0.00614617 -0.0366045 
-0.0190038 0.00829152 -0.0364436 -0.0185841 0.0104504 -0.0366595 -0.0184693 0.0122649 -0.0367265 
-0.0189784 0.014078 -0.036457 -0.0182199 0.01566 -0.036847 -0.0179449 0.0191663 -0.0369776 
-0.0202178 0.000893852 -0.0357886 -0.01935 0.00263482 -0.0362601 -0.0206159 0.00393733 -0.0355607 
-0.0192668 0.00509074 -0.0352886 -0.0212039 0.00605998 -0.035213 -0.0195823 0.00699633 -0.0353227 
-0.0178392 0.00746618 -0.0353497 -0.0210437 0.0080441 -0.0353043 -0.0200978 0.0099111 -0.03585 
-0.0205928 0.011619 -0.0355708 -0.0204386 0.0134079 -0.0356616 -0.0199649 0.0154853 -0.0359273 
-0.019679 0.017491 -0.0360879 -0.0178737 0.0177806 -0.0358098 -0.0209837 0.0189287 -0.0353434 
-0.0192573 0.0192032 -0.0357542 -0.0224957 0.00104751 -0.0344006 -0.0199602 0.000946142 -0.0340173 
-0.0182397 0.000894932 -0.0348941 -0.0209027 0.00229149 -0.0349094 -0.0190739 0.00245377 -0.0344916 
-0.022528 0.0028465 -0.03438 -0.0179165 0.00393222 -0.0350267 -0.0220567 0.00455584 -0.0346867 
-0.0234116 0.00540027 -0.0337795 -0.0181763 0.0062188 -0.0340979 -0.0225637 0.00716302 -0.0343566 
-0.0231126 0.00883143 -0.0339867 -0.0216714 0.00968901 -0.0349316 -0.019005 0.00896136 -0.0347749 
-0.0203916 0.0106305 -0.0340836 -0.0187869 0.0107423 -0.0348872 -0.0221735 0.0114265 -0.0346083 
-0.0211172 0.0127927 -0.0341193 -0.0190032 0.0125213 -0.0350416 -0.022577 0.013815 -0.0343474 
-0.0210152 0.0147754 -0.0346526 -0.0193357 0.01418 -0.0344348 -0.022522 0.0157116 -0.0343866 
-0.0206919 0.0170269 -0.0346834 -0.0185119 0.0162241 -0.0351724 -0.0222643 0.0178833 -0.0345561 
-0.0190296 0.0177747 -0.034438 -0.0233454 0.0191854 -0.0338281 -0.0177824 0.019205 -0.0347265 
-0.0240697 0.000913026 -0.0333162 -0.0214179 0.000889733 -0.032974 -0.0181977 0.000898365 -0.0331007 
-0.0229176 0.0021806 -0.0327621 -0.0211985 0.00265521 -0.0331826 -0.0240465 0.00345875 -0.0333348 
-0.0223653 0.00400633 -0.0330092 -0.018982 0.00298983 -0.0327731 -0.020547 0.00422433 -0.0337718 
-0.0187934 0.00456926 -0.033605 -0.0216906 0.00584858 -0.0334993 -0.0199366 0.00592873 -0.0338538 
-0.0232041 0.00713519 -0.0326469 -0.0214827 0.00754683 -0.0329564 -0.019309 0.00759461 -0.0336477 
-0.0246734 0.00814334 -0.0328724 -0.0178484 0.00858345 -0.0333166 -0.0244356 0.00991845 -0.033046 
-0.0205678 0.0088752 -0.0337466 -0.0221812 0.0102025 -0.0332956 -0.0187951 0.0103153 -0.033139 
-0.0236697 0.0115586 -0.0336099 -0.0211748 0.0115996 -0.0327752 -0.0194398 0.0119904 -0.0333931 
-0.0243194 0.0132133 -0.0331377 -0.0225868 0.0127901 -0.032873 -0.0200742 0.0136038 -0.0329037 
-0.0235244 0.0148193 -0.0331956 -0.0217051 0.0143628 -0.0328758 -0.0209406 0.0159358 -0.0332822 
-0.0191748 0.0157649 -0.0335701 -0.0247563 0.0161054 -0.0328067 -0.0227517 0.0169459 -0.033111 
-0.0243174 0.0178298 -0.0331342 -0.0211327 0.0176613 -0.0328149 -0.0214864 0.0192109 -0.0336462 
-0.0196959 0.0192036 -0.0335848 -0.0180202 0.0192034 -0.0329495 -0.0266424 0.000915991 -0.0312927 
-0.023256 0.000899011 -0.0315469 -0.0197685 0.00089752 -0.032234 -0.0253787 0.00165859 -0.0323344 
-0.0241121 0.00261115 -0.0314918 -0.0216017 0.00197364 -0.0315607 -0.0255118 0.00346273 -0.0322284 
-0.0211184 0.00369732 -0.0317323 -0.0264977 0.00508287 -0.0314311 -0.024334 0.00482173 -0.0322028 
-0.0178868 0.00424083 -0.0320905 -0.022673 0.00548965 -0.0320474 -0.0207736 0.00543673 -0.0320109 
-0.0190012 0.00566498 -0.0322047 -0.0255735 0.00648807 -0.032182 -0.0201458 0.00711165 -0.0318341 
-0.0183198 0.00731969 -0.0321373 -0.0260859 0.00815944 -0.0317614 -0.0193381 0.0088056 -0.0323259 
-0.0258782 0.00993582 -0.0319132 -0.0230014 0.00902774 -0.0322078 -0.0208129 0.00982006 -0.0322092 
-0.0232726 0.0108354 -0.0320244 -0.0251652 0.011475 -0.0324976 -0.0198243 0.012041 -0.0316491 
-0.0262357 0.0132688 -0.0316415 -0.0242059 0.0125853 -0.0314622 -0.0212799 0.0130916 -0.0316782 
-0.0179464 0.0126596 -0.032648 -0.0248638 0.0144971 -0.0320004 -0.0231071 0.0140019 -0.0316478 
-0.0184079 0.014391 -0.0327091 -0.026159 0.0157109 -0.0317046 -0.0232964 0.0158901 -0.031773 
-0.0202168 0.0150749 -0.0318792 -0.0185272 0.0159857 -0.0318979 -0.021542 0.0162605 -0.0316235 
-0.0262212 0.0175067 -0.0316555 -0.0244931 0.0178816 -0.0313435 -0.0227246 0.0175996 -0.0314427 
-0.0193664 0.0173431 -0.0327277 -0.0177845 0.0176204 -0.0319159 -0.0266562 0.019207 -0.0312895 
-0.0252478 0.0192 -0.0324313 -0.0225617 0.0192063 -0.0322117 -0.020586 0.0191921 -0.0320284 
-0.0279884 0.000895468 -0.0301014 -0.0248858 0.000897057 -0.030786 -0.0204135 0.000899077 -0.0305598 
-0.0185649 0.00128197 -0.0309585 -0.0198863 0.00244424 -0.0313263 -0.0268844 0.00328355 -0.0310898 
-0.0253399 0.00298297 -0.0302224 -0.0228504 0.00387292 -0.0312885 -0.0181982 0.00306549 -0.0307431 
-0.0249541 0.00491538 -0.0305206 -0.0194774 0.00422753 -0.031242 -0.0279664 0.00582239 -0.0301193 
-0.0240411 0.00634249 -0.0312677 -0.0229106 0.00535388 -0.0302744 -0.0201857 0.00559205 -0.0303197 
-0.0176657 0.00558984 -0.0309226 -0.0273161 0.00738433 -0.0307109 -0.0217157 0.00664527 -0.0310641 
-0.0189452 0.00688372 -0.0305135 -0.0231567 0.00785107 -0.0308575 -0.0215258 0.00840145 -0.0313765 
-0.0198651 0.0084351 -0.0306483 -0.0258195 0.00970058 -0.0301321 -0.0245272 0.00894404 -0.0312596 
-0.0228356 0.00982421 -0.0306091 -0.0181871 0.00901315 -0.0309623 -0.0273928 0.0103821 -0.0306506 
-0.024442 0.0107071 -0.0306759 -0.0211043 0.0110267 -0.0309147 -0.019303 0.010344 -0.0313978 
-0.0278672 0.0120611 -0.0302058 -0.0260906 0.011585 -0.0309581 -0.0225649 0.0120738 -0.0309422 
-0.0180821 0.0116413 -0.0311829 -0.0277529 0.014086 -0.030318 -0.0261108 0.0147978 -0.0301607 
-0.0216257 0.0146428 -0.0308409 -0.0192387 0.0136922 -0.0312818 -0.0181696 0.0148564 -0.0304355 
-0.0275942 0.0158715 -0.0304672 -0.0247127 0.0160017 -0.0306744 -0.0196701 0.0161181 -0.0305237 
-0.0275523 0.0178405 -0.0304963 -0.0204335 0.0176081 -0.0311659 -0.0187966 0.0176869 -0.0304277 
-0.0252388 0.0190603 -0.0301962 -0.0235025 0.0192025 -0.0306312 -0.0217079 0.0191619 -0.0306298 
-0.0189072 0.0192022 -0.0313861 -0.0292856 0.000896722 -0.0288452 -0.0257693 0.000897129 -0.02922 
-0.0221422 0.000897451 -0.0300772 -0.0183216 0.000946037 -0.0292108 -0.0286656 0.00247001 -0.0294534 
-0.0268912 0.00223754 -0.0296338 -0.0238784 0.00202075 -0.0298156 -0.0222272 0.0026901 -0.0300455 
-0.0204559 0.0024864 -0.0296257 -0.0237182 0.00380731 -0.0297196 -0.0192574 0.00382384 -0.0295073 
-0.0286184 0.00426719 -0.0294974 -0.0268048 0.00449895 -0.02977 -0.0252647 0.00419968 -0.0289037 
-0.0214577 0.00431366 -0.0300828 -0.026144 0.00617514 -0.0300535 -0.0216089 0.00617006 -0.0293369 
-0.0185824 0.00552639 -0.029378 -0.0292058 0.007426 -0.0289262 -0.0273666 0.00704662 -0.0289467 
-0.0244866 0.00667258 -0.0295657 -0.0281699 0.00875407 -0.0299263 -0.0257319 0.00791669 -0.0299612 
-0.0219434 0.00792679 -0.0295292 -0.0185852 0.00823993 -0.0293959 -0.0243151 0.0090879 -0.0292281 
-0.0211817 0.00948974 -0.0299888 -0.0194573 0.00988179 -0.0296612 -0.0176685 0.00995677 -0.0295027 
-0.0279795 0.0102555 -0.0289611 -0.0214977 0.0110612 -0.0291679 -0.0266402 0.0114534 -0.0289907 
-0.0247641 0.0122352 -0.0297919 -0.0232515 0.0113129 -0.0294684 -0.0193838 0.0116751 -0.0299505 
-0.0289381 0.0133295 -0.0291987 -0.0263795 0.0130151 -0.0298718 -0.0228131 0.0134637 -0.0298313 
-0.021198 0.0126581 -0.0299413 -0.0180308 0.0130981 -0.0300927 -0.024511 0.013987 -0.0300921 
-0.0202067 0.0141701 -0.0298437 -0.0293387 0.0157474 -0.0287919 -0.0276277 0.015136 -0.0288327 
-0.0231816 0.0151943 -0.030129 -0.0282618 0.0171682 -0.0289889 -0.026153 0.0168208 -0.0299805 
-0.0213743 0.0161177 -0.0298412 -0.0181415 0.0163339 -0.0294212 -0.0245433 0.0175045 -0.029588 
-0.0227876 0.0178607 -0.0296729 -0.0209852 0.0178349 -0.0294754 -0.0286749 0.0188553 -0.0294484 
-0.0268978 0.0192035 -0.0295179 -0.0198827 0.0191979 -0.0298739 -0.0179814 0.01921 -0.0298432 
-0.0273952 0.00089678 -0.0284092 -0.023182 0.000889286 -0.0286157 -0.0200822 0.000916728 -0.0287944 
-0.0300341 0.00263993 -0.0280641 -0.0281193 0.00240194 -0.02774 -0.0250827 0.00241687 -0.0285322 
-0.0216275 0.00177644 -0.0284644 -0.0191439 0.00241585 -0.0283989 -0.0267898 0.0034542 -0.0283204 
-0.0239406 0.0037035 -0.027803 -0.0223275 0.00371737 -0.0285848 -0.0206867 0.00325407 -0.0280186 
-0.0174912 0.00367254 -0.0291985 -0.0300449 0.00451431 -0.0280567 -0.0283138 0.00418469 -0.0277172 
-0.0205052 0.00491172 -0.0286858 -0.0302557 0.00627777 -0.0278184 -0.0286502 0.00578272 -0.0284603 
-0.0268796 0.00545806 -0.0282497 -0.0249792 0.00577522 -0.0280958 -0.0232907 0.00523256 -0.0285268 
-0.0257434 0.0073989 -0.0280486 -0.0199247 0.00660372 -0.0288642 -0.0182313 0.00692468 -0.0282299 
-0.0303588 0.00806392 -0.0277104 -0.0280478 0.00838166 -0.0279458 -0.023444 0.00768919 -0.0285195 
-0.0203032 0.00835501 -0.0289073 -0.0294447 0.00925503 -0.0286862 -0.0264937 0.0089054 -0.0286732 
-0.0225843 0.00948982 -0.0288675 -0.0209937 0.00975961 -0.0280423 -0.0300721 0.0108055 -0.0280139 
-0.0250106 0.0107055 -0.0288858 -0.0197786 0.0110573 -0.0283145 -0.0286064 0.0118053 -0.0283111 
-0.0242064 0.0121058 -0.0280927 -0.0185834 0.0124109 -0.0285247 -0.0301345 0.0128276 -0.0279585 
-0.0273888 0.0134371 -0.0282985 -0.025555 0.0134646 -0.0283416 -0.0223337 0.0124634 -0.0284213 
-0.020669 0.0131554 -0.0283054 -0.028968 0.0143528 -0.0277301 -0.0222611 0.014611 -0.0285617 
-0.0187142 0.0141866 -0.0288386 -0.0258758 0.0152297 -0.0284345 -0.0240789 0.0150624 -0.0285805 
-0.0197143 0.0157655 -0.0287659 -0.0228074 0.0163123 -0.0287779 -0.0298717 0.0174158 -0.0282335 
-0.0266309 0.0177405 -0.0285153 -0.0249422 0.0175954 -0.0278399 -0.0220168 0.0176775 -0.0279188 
-0.0193745 0.0175398 -0.0287312 -0.0175748 0.0178108 -0.0285795 -0.0296827 0.0192021 -0.0280054 
-0.0277555 0.0192054 -0.0279466 -0.025484 0.0192056 -0.028417 -0.0237434 0.0191944 -0.0288473 
[...]
POINT_DATA 10000
FIELD FieldData 7
id 1 10000 int
6352 8450 4452 4559 3804 1303 9819 7531 1523 
6130 8140 4761 4789 7810 2137 61 5097 8699 
8689 8070 5656 7721 6187 2147 1174 4955 5783 
3829 4521 6667 1761 9957 1471 9936 809 776 
7395 5865 6508 5933 1517 9188 7144 7132 2753 
4039 8262 3824 5999 3502 4144 7437 9081 7438 
1023 9812 9718 2418 2843 2396 6721 6010 9595 
4854 3260 5409 787 6401 960 6661 5021 7610 
2317 6903 2305 1805 6807 3397 7218 3762 9134 
1885 8811 9905 5196 3361 5716 9657 6589 7950 
9809 3544 3275 6686 9114 5245 2173 892 1185 
8517 7269 6283 1870 7292 2553 30 4864 291 
4668 3316 7538 8217 1756 6811 5262 7802 4088 
4187 4319 2264 9546 8046 4350 3440 4532 3108 
4261 7535 9565 4710 1075 1594 5750 9791 7870 
8784 8650 6141 672 5688 5729 6362 7072 7631 
559 4984 9006 9767 2008 4545 3735 4227 4846 
3224 3936 4567 3347 4730 3415 6759 1902 9511 
9729 4471 3821 6901 9528 6744 2760 1239 9521 
9844 2874 3820 5800 2404 9911 4405 2912 4935 
7486 5374 8812 109 8830 1450 1558 3652 4736 
8428 3755 2011 7174 4285 5203 3176 1417 7980 
9202 637 2856 9762 1538 9156 4241 4910 8289 
8697 1906 5081 2327 1333 6318 3237 9234 3420 
4398 3943 2231 2947 6741 8532 4929 4484 6975 
5186 8388 6350 9056 3518 5131 9641 88 9401 
8202 7507 3716 8625 1092 6845 140 630 5334 
2287 7215 6034 5045 9576 8726 855 726 2797 
4715 4011 8486 6732 3546 2044 987 6840 7546 
5120 6439 7626 5640 3684 1164 8422 3972 3483 
7693 3665 1368 3894 5779 4166 8080 9943 8780 
7331 3536 4488 8643 7058 3460 4742 6452 8624 
8989 3564 6101 1527 7450 4233 9468 9165 186 
3908 8438 6624 8687 5826 7584 9475 3043 4167 
6340 7755 615 7719 3765 9320 5822 8441 1731 
644 1946 6578 9203 5162 3045 3720 20 7462 
180 4273 1383 3846 7477 7117 9208 4338 5183 
6151 1660 3713 8765 3424 6930 7259 2409 2577 
4461 4534 3647 6217 8185 5140 8604 2108 2034 
5422 1596 4613 6129 3225 954 2519 886 7684 
8306 2902 4819 7927 1157 2176 2536 9866 8671 
33 9932 9115 3015 6329 2672 9075 444 3605 
7175 8304 7733 6955 3493 9138 1732 6554 9814 
286 2277 9925 6749 1253 6617 927 5952 999 
7135 6223 6572 5955 1924 238 798 1883 3366 
8228 1536 1793 1860 3141 1777 9816 3073 8876 
3048 9880 2208 9591 5676 5787 7892 9179 7170 
2693 9406 3308 706 8050 8197 1488 4188 2821 
290 8744 2510 926 2620 1847 3658 1351 1014 
6017 7834 7526 2417 738 4472 3754 3591 7900 
3474 9804 7716 7920 875 3165 3709 8412 9031 
4765 4469 5321 8263 961 1167 3441 8547 3222 
1068 5440 7239 9209 797 920 3151 2566 23 
3528 31 77 858 6292 8610 6757 9418 842 
9732 3320 574 9659 2310 6553 6359 8672 9749 
2201 2603 94 9562 4433 4353 6549 8579 8783 
5869 5052 1379 8575 5905 7994 1249 6236 783 
8254 2875 3365 5472 6207 318 4914 2521 6296 
1004 7431 4343 6819 8187 7510 6011 48 2354 
9706 6527 2822 4079 4371 4068 942 1099 1116 
4691 4326 9233 8292 8792 2498 7359 7552 7149 
9346 8382 301 9465 9454 185 767 7726 4538 
3291 68 7191 1408 4418 7698 6937 5264 9600 
4531 7028 6970 5293 1919 3592 2452 3219 3132 
5424 9691 1464 8209 5672 9998 2032 2790 7841 
9853 2538 4115 1570 8758 7987 2997 2981 1512 
8545 1585 8004 6287 5781 9759 4340 6812 5928 
6602 1713 4384 1323 7283 2916 9917 5785 1257 
5906 4282 3667 1612 6172 5579 4972 6073 5187 
4794 8437 788 7660 8978 8834 6710 7211 425 
8576 4034 3792 8234 6239 6012 6476 3770 815 
7661 2099 5914 150 4162 5428 2735 604 2079 
8327 2092 6827 9862 7108 7964 7388 2561 7351 
4432 7666 7248 4665 6320 9238 9415 1400 4504 
5268 3210 5591 9522 6483 5094 8879 1410 5216 
2081 589 5065 7225 2035 423 1716 3852 80 
92 1703 789 6963 2659 8058 9483 4297 3511 
8896 8201 2806 408 2 6020 1968 7456 2444 
7562 1316 1426 3170 7769 8506 7334 5557 2991 
4883 9539 4074 5607 3849 5324 6618 4815 5618 
9239 7324 7356 4393 9214 4960 2516 7667 9265 
8719 2478 4311 2256 380 9469 8088 7097 2554 
8447 7189 1519 3573 2636 6003 1681 8151 2769 
9200 4887 5057 2383 9099 7136 8971 4773 1874 
6969 2555 2055 3761 2124 6923 2810 4653 6419 
7057 1959 382 8838 3379 7738 7673 9645 4123 
6551 5109 7609 310 3610 8257 8358 1045 4518 
8570 1758 1361 5101 7796 8476 5295 6883 3623 
5967 8287 685 3868 7866 1077 4148 4423 6029 
664 2031 8848 4841 3304 2552 595 9359 7907 
3070 9152 5118 5569 9517 6936 9314 8727 3312 
9302 3346 9547 6928 3136 4449 593 4785 9615 
4425 9025 6780 4447 8617 1741 575 354 847 
6510 9498 5300 11 7541 5755 4905 6694 5595 
6666 5185 3330 4780 6675 732 1632 9022 6488 
6821 4266 5393 6534 9926 746 8597 4 4254 
1901 6972 6858 2587 9048 4663 5457 426 2799 
9507 2414 7220 981 8475 2756 3139 6654 3823 
9032 8602 1720 1072 6509 6847 6465 4940 2212 
5919 169 3602 3351 7640 6935 8276 2080 1284 
5697 8329 5920 2837 9535 463 5286 477 5958 
7812 6384 5002 4264 3240 5086 5482 9992 2198 
1790 9111 1796 6068 5671 3212 4543 159 5480 
351 5033 4478 9259 9440 164 9436 375 6461 
8708 3529 7159 5466 8340 1711 2606 5096 4462 
2420 3270 5123 5594 6197 5815 9961 2082 4804 
3144 9805 165 8152 9596 3903 4404 899 2119 
8295 7126 5908 4111 1394 7311 1439 221 709 
5142 2537 1689 2263 7819 1861 3574 59 7434 
2021 8557 1346 6870 5011 7055 6486 7931 725 
1576 3779 6718 6107 9638 1509 4954 4179 6662 
733 2527 4431 2960 2095 6477 9007 4847 819 
1097 2713 9649 8520 4735 5061 4879 3454 1869 
3558 9004 9764 716 1230 6041 149 6312 1577 
7050 9452 5453 386 7192 4027 1662 1461 5855 
8293 1416 7636 7223 6116 481 5193 6786 4357 
2951 7381 5088 2465 5325 1543 6957 7671 5585 
3793 8461 2151 4656 3603 8398 5604 4573 6868 
2203 4094 124 5071 4498 7795 4436 639 4934 
6592 4204 6351 9599 9071 7210 250 2900 7293 
6528 8462 6714 7281 9397 6833 6980 6530 6057 
8942 5924 6562 2942 8869 4771 2378 3960 679 
3259 5984 1848 8346 6947 198 6332 6405 8487 
970 1469 6994 4527 7336 3179 1680 5658 3928 
2736 5387 1384 8196 6268 5415 7420 195 7265 
9626 2826 1522 3898 2127 86 2773 4058 8960 
8485 1960 8084 8745 5784 1432 1986 5661 5867 
5710 8240 8594 4525 6412 2557 6013 3922 39 
3526 4477 6282 6699 8057 3486 7709 9102 3490 
8827 9912 1112 7244 2639 6863 9824 7160 350 
8673 8224 2940 7246 105 7154 3311 9494 1943 
2246 4107 2485 6598 1936 2278 9935 723 513 
3290 4650 2995 6376 9610 8031 1342 1020 516 
1234 9321 4269 8109 5727 3128 4895 9793 6474 
6441 7599 5113 4821 5864 7228 6729 801 1365 
5105 9280 6846 6680 5674 8395 3246 3496 8788 
707 5367 3005 4127 5223 5343 2313 9916 3566 
7965 2993 3860 6152 5916 6392 6785 6907 6407 
1182 4093 4165 4402 7440 2980 2691 6040 6285 
9231 7255 2529 1787 7056 4923 8961 2999 8957 
7763 511 5297 3692 35 4324 5176 8464 6775 
5979 1184 6983 5444 6385 7784 9561 2288 5130 
5234 8802 315 5298 7776 342 1250 5494 5721 
7633 1697 385 6473 5157 6338 8131 9068 7354 
4770 9473 5359 666 4009 2242 7952 2442 9888 
7325 8991 7615 2882 3263 4912 9423 6782 654 
7363 8988 548 2164 9974 6577 564 3234 2142 
6265 9326 3314 866 6083 6696 7295 7337 6471 
4295 1624 6915 3979 4791 7137 7051 8163 4590 
231 2384 8999 1530 7106 5246 4603 6413 272 
6424 90 7545 7708 8679 7893 374 4310 1615 
6039 7711 3935 9186 7988 2866 9798 3887 8587 
1175 46 6941 1319 5416 764 4971 7470 8725 
2125 2249 255 7148 7534 4992 8016 4516 5340 
705 1155 6664 1242 3370 5681 4174 1151 7474 
2943 1746 1144 3217 8977 2573 3384 7654 9000 
760 270 8101 8181 7831 304 8681 5625 2783 
2932 9505 898 2429 4060 1294 6221 3131 3031 
646 8691 7686 9585 5439 5243 2800 8529 230 
450 3734 1763 7138 9881 8561 1604 7116 4159 
1409 1133 6301 8685 5554 2956 305 4695 9324 
9464 1587 7571 4824 7285 4685 9989 137 2109 
8214 7563 2331 1878 4505 9825 3419 3650 2037 
8298 973 4816 5400 2630 718 9334 6253 6379 
747 6831 8749 9197 8452 5969 5931 8521 8732 
6878 8018 1504 1499 3688 7253 3022 2979 8062 
9002 222 4317 5631 5575 8253 4813 6120 1661 
8692 2841 4119 2911 5129 5178 6238 6267 6633 
7193 4507 2105 8566 1525 7577 2106 9990 1147 
8342 9403 3341 8543 1429 7748 2181 8668 4664 
6399 9136 2755 2890 1818 9404 4182 4679 4629 
5886 233 2262 1888 6671 9180 2739 1712 5662 
7408 478 8097 8886 6635 4275 2663 1467 6181 
2572 1552 1422 3001 3827 8250 5830 1779 4156 
9763 3921 3339 9113 8144 540 8159 9519 6944 
7747 7967 7707 4515 3886 3964 4734 3579 8337 
7566 3561 9480 8771 3851 9577 7020 1728 3930 
2046 7713 8457 98 8216 7096 963 1618 9161 
4589 7557 2197 4048 9492 9552 873 9131 9014 
2682 3459 7884 8593 9514 6634 5309 4288 8606 
8738 8940 6959 9493 2447 676 6142 2590 4713 
7528 8465 9315 6243 9240 2200 5772 7294 7947 
4386 2961 2595 5735 6836 3977 2229 1205 7422 
9878 1037 9800 7062 440 8510 8288 1423 4519 
2977 5072 1702 4953 2074 8049 5212 2941 8500 
2808 4678 7996 9711 6531 8471 1630 1476 1507 
2766 5613 4758 8285 6736 1002 1583 25 3510 
1655 3146 7544 8855 2645 2336 4002 9945 8364 
7675 4913 1345 5225 9137 288 4717 924 1616 
445 7797 5660 2863 1456 8514 9387 2357 2661 
6818 5281 1891 4654 5156 2877 6984 3974 2255 
2149 4997 3052 8684 8987 1988 6791 5396 4213 
7979 7970 3710 1974 7024 7766 6247 4215 5782 
3934 4988 6886 1759 1224 539 7627 2195 4298 
236 4302 6109 7424 3835 8799 7941 3728 7745 
4486 9874 5713 840 5115 2348 8414 4364 9013 
796 3191 6025 6880 9005 8277 4617 6656 6920 
8331 55 7614 538 6974 2347 6810 8902 4594 
9472 8932 7068 8426 769 1889 2299 1659 136 
3049 6860 2027 2786 9713 2270 2740 5927 3872 
3243 9822 3940 2946 5743 4348 992 2273 3919 
5619 2876 2905 4076 6567 4005 1248 1867 7816 
7406 5693 896 3985 5630 6958 1186 8230 2371 
6778 6177 7820 2597 8844 5849 8552 8463 592 
2732 3068 6007 8221 568 1438 9604 1930 9466 
5296 9017 9794 9867 4035 495 5871 7649 1843 
7003 9046 4077 2749 4341 7433 3004 395 8872 
868 9289 1553 2867 1524 7854 5829 6319 7105 
5516 1916 1381 8273 6449 7623 5726 6583 3282 
3892 9026 2474 5821 1328 4501 2374 9896 9875 
7214 2741 2788 2804 6862 790 6371 9708 5519 
3844 6514 4756 2885 695 4838 4113 4778 9882 
6533 8686 1233 9372 9367 8002 556 5307 3575 
9218 5503 2705 7073 1999 3648 4097 6604 5903 
2615 3167 7702 2295 3350 6055 9952 9510 4928 
1991 9478 3707 6144 6590 2608 7271 2525 2711 
3178 3375 1137 3506 2315 5497 7547 5602 2838 
3680 7638 9653 1884 2382 66 3295 4535 2928 
7879 647 8899 6895 2472 83 3232 7556 6701 
5278 3268 7390 4487 2576 8323 3129 6777 9525 
8348 5559 3 6627 5312 8073 9919 1575 362 
623 7806 6871 1201 4646 1956 8531 2812 454 
1816 7845 7833 163 1696 1425 6703 1110 4583 
5777 3953 7298 6826 3942 8400 2302 3971 745 
2028 3357 688 6766 1011 2827 360 8875 9697 
2423 9083 8349 8071 8934 9612 1359 4296 5683 
6056 3547 9073 4917 4744 7647 2658 3061 3158 
1755 8748 168 8950 388 117 3656 9616 6119 
2251 3679 4072 5788 2759 9252 7600 8178 3768 
765 6138 8171 1251 5689 5306 2466 4849 2656 
6702 4490 1962 6484 2426 5272 3211 5912 9279 
2254 4042 9061 6190 3442 6356 1608 8027 7921 
2209 154 3993 912 8507 9089 2214 7715 1679 
1921 689 1371 1907 8492 2285 1913 941 3862 
8354 4378 9564 704 3134 1405 1947 823 4732 
2618 5831 2103 5718 3719 2473 1769 496 2088 
3727 4600 3929 2476 2469 9721 5053 482 3479 
9553 4224 2446 7960 631 687 1453 1403 7252 
848 933 980 7621 1283 8674 669 8449 5913 
2664 3299 9643 3588 7940 9377 4851 8527 7794 
1042 8162 8825 3749 1838 6951 1817 3737 6882 
2061 6442 622 8819 134 9251 990 5812 3646 
3485 4848 2304 5911 5528 8104 6370 3556 9598 
7030 1496 8731 3848 7104 6783 4698 7561 7999 
6095 6303 5856 2244 9879 4818 8667 8522 6260 
5664 2893 3272 9858 284 3946 9039 7232 5790 
9364 5485 3432 835 8183 2001 993 965 7672 
3655 4091 3670 6761 5263 736 4859 4176 8936 
9834 900 8707 4661 1917 1117 8332 701 6538 
8559 914 6973 2253 7441 742 4120 2884 6556 
3542 4126 9160 8634 3174 9416 6912 3687 3354 
269 626 3297 9771 7100 3409 9366 369 3281 
3256 3334 8153 6004 95 7917 4884 9408 1308 
5527 494 3885 4135 4593 6270 4006 5098 2364 
8106 6784 3127 8229 3759 2985 4510 1380 3923 
406 8468 5506 5289 7375 5633 3396 3371 5942 
3143 9570 8040 5757 4970 6711 3449 6605 8368 
7757 3036 2563 3799 7520 8149 8375 2390 3750 
5627 2616 3714 2545 9311 4169 6166 7332 994 
2660 6804 3843 4921 2083 7656 1846 7896 9654 
126 1161 4903 6353 4793 3461 2568 526 9104 
6470 4312 2202 3148 1950 1039 1825 8429 2542 
364 9077 3491 2188 8605 925 8261 6298 2206 
673 4219 8098 9942 7789 1173 510 5483 606 
6576 8754 215 2581 7646 5043 1180 2065 4112 
4251 1620 3017 2923 3082 239 2394 958 5462 
3381 5537 3620 4529 5833 8709 1135 748 1803 
9474 2955 7352 6246 4961 953 6368 8114 1654 
9435 9554 7548 8854 5742 5574 5326 1270 8985 
5536 328 1749 7103 663 5696 7267 2113 1200 
7380 7536 8616 534 6018 780 2345 5329 4197 
7914 9319 3535 4579 4168 7943 9206 353 7759 
1309 4246 7869 4130 6613 6468 4610 3660 9325 
3355 7426 6504 3775 7045 5370 4416 2829 1625 
9655 5546 2333 800 8539 2030 6565 9752 988 
911 3009 5471 6391 4391 9277 4178 5265 5922 
5610 3982 3078 860 3047 2745 7639 9328 5501 
7861 617 9787 5555 5443 3677 4485 7369 5493 
2894 8343 2130 9457 518 4741 793 582 5725 
5891 7468 12 2252 6764 3513 7551 8639 4995 
2778 8655 5956 6987 1443 203 2146 8011 6672 
7181 843 6595 6432 274 8022 5558 6874 590 
2965 1386 9270 7801 3319 5737 5124 880 5960 
7862 8558 5663 4300 4153 99 2024 2190 641 
4513 7222 4330 2282 5909 2844 5621 9727 5665 
5533 4334 9066 5221 6281 5786 6276 5514 1032 
6310 9271 2043 3906 3757 1811 7835 6704 4601 
3589 7370 9826 1588 93 972 4476 3338 501 
9700 457 1236 2049 1152 9991 4729 3086 6945 
1973 5910 9127 3763 4633 6117 3422 5426 8912 
7092 3672 5828 1043 5616 8544 7945 5936 6537 
1733 8247 7657 9720 6693 3476 2177 9921 2004 
3774 7398 5389 9166 7134 9634 7341 8282 2398 
5435 6573 3816 5027 650 1550 7320 418 6178 
9090 8120 5012 2224 3624 1667 5171 4171 3931 
6716 2376 8406 756 3159 3657 4253 834 3715 
9967 3913 4936 832 6773 6204 1190 7488 5160 
5001 9148 9666 293 6745 5064 21 6722 4184 
4075 5845 87 257 4080 2865 6953 959 9873 
5091 1875 3521 4154 3991 6648 8721 7353 8700 
4752 4122 3310 1297 6707 6948 7236 7752 5258 
2813 5966 5816 333 372 5046 6608 9955 3918 
446 7888 921 2828 2816 5678 4359 2540 4565 
36 7677 2517 2805 546 1559 799 9869 3771 
5949 9714 8215 9067 6734 7635 5954 3666 8764 
2272 2852 5255 9369 2243 6118 2401 2599 6328 
7867 4746 6838 4320 4260 949 254 3834 2834 
1780 4979 7484 1375 1271 8081 7089 4382 6433 
2020 8091 8669 8473 9427 8015 4987 7567 4308 
8061 6506 8747 5247 3125 8818 600 5179 2644 
2369 2276 9079 373 9734 1216 9445 5544 3276 
5195 2430 7080 6750 2316 1581 9686 323 6044 
7235 5637 9742 3416 9931 9386 1101 6800 1290 
7912 3340 7643 4440 3794 3626 1649 4509 5425 
6065 9664 8001 3331 9549 4456 8511 214 5302 
4840 4408 8499 8270 4803 4248 4699 1058 9299 
4117 3698 384 5023 1093 8661 9414 8301 3192 
4648 7829 4294 6678 1231 7414 2839 8455 8926 
3850 4850 8642 1905 3229 3857 204 3025 5522 
435 14 8815 3604 4355 3071 1676 9470 8232 
4755 9286 7895 8640 2166 3584 5250 4572 8571 
3833 247 8675 3730 9768 7425 2983 3200 2329 
6126 515 1964 3841 6779 7948 1047 4045 3024 
4784 3606 3362 3352 9219 9806 1629 5111 3089 
4499 2179 9074 9640 7641 6546 4669 5241 1740 
1066 5983 1031 4299 8371 6850 1449 6071 879 
4274 6054 6182 7114 9973 3286 6069 334 8477 
5486 6429 2944 1079 8168 9761 6925 563 5316 
6755 6495 2726 3118 5925 6347 7033 6115 3090 
9059 8973 3353 6123 8534 7307 2649 6322 3590 
2014 5386 7249 8769 7071 7465 7938 1784 6658 
9563 1382 7595 1724 6226 1824 4560 3410 2771 
9601 2492 8231 5897 6670 3088 8890 6165 5940 
9362 4041 5317 7323 2591 3706 9431 8096 3636 
3965 245 7409 4185 7872 2579 1582 1533 1773 
6808 6290 1119 5063 1052 8715 2807 3042 2217 
1286 4358 586 8693 943 5224 8023 8968 1598 
9820 142 1786 6652 6451 7774 9051 7141 1851 
9092 9986 7155 9038 2535 2857 8864 3597 6894 
906 1900 3920 8379 3407 1692 2036 9792 4830 
9196 1923 9770 4110 67 7542 2458 9940 8953 
8794 7984 4920 3028 2488 1967 4607 1516 2491 
5024 4163 7983 1995 6629 4247 5900 1699 2787 
5008 5776 2968 3863 9266 8060 6445 5284 2703 
7915 6397 6064 8103 2490 3377 3382 3037 8489 
7322 4598 4963 9889 1637 6890 1535 3249 1244 
4385 9617 753 5077 4890 8889 5939 937 6127 
6964 901 9854 3748 8623 7720 2236 1718 5699 
8392 2791 4466 3512 536 6213 5204 7968 4059 
2501 1437 7245 332 3385 4937 7779 3182 6580 
2283 6663 5603 8205 8166 7270 8596 1465 4767 
1436 2685 7625 6897 492 3298 2085 5810 1778 
3856 7909 1987 5888 7844 9516 174 1189 8266 
6214 8269 8910 3832 803 3630 6428 918 8373 
253 3221 6910 4451 813 1399 1547 4458 6417 
1823 8938 3058 9441 1849 1892 6646 72 5304 
6586 8283 6481 1909 2050 2341 4177 571 5049 
3745 8005 2434 3343 1298 5169 876 1961 5235 
9775 8979 3638 6601 2016 5371 7975 5016 4435 
3405 8019 3457 6708 755 1013 6614 7054 3400 
7048 9235 147 3169 2199 9267 1666 7871 4552 
4670 2475 619 6799 1223 919 7036 812 2913 
4268 5839 4577 2400 472 7606 9899 202 6842 
1487 1171 1123 1050 9625 7555 4958 9291 2507 
4000 2483 6420 4426 6938 4313 3095 8608 6222 
5712 6070 8586 242 1927 6790 2796 7494 4047 
1452 6444 3267 1025 6990 5073 3287 7090 6263 
9558 5388 5442 5946 7972 3254 1477 2692 8296 
8839 3044 7932 6885 1470 280 4858 5126 2045 
985 6436 2454 8067 7070 715 4234 371 8703 
8800 5797 5405 8704 317 7025 1080 1005 2496 
1209 1619 4860 8782 8387 2297 3783 1046 1664 
4827 119 8858 9339 81 6611 267 7868 8923 
976 5199 8892 5987 1856 1210 7963 657 6158 
948 932 2041 1958 939 8796 308 7514 2688 
5540 5404 6245 2558 5844 3593 9740 4672 5076 
3876 8948 8094 5013 5445 1071 728 278 5391 
132 2362 6404 3902 7993 2451 692 1285 4876 
5191 6271 1785 5007 4038 5945 4901 7846 4533 
1218 519 9739 8478 131 3033 1120 887 6978 
2528 1992 5824 9760 1129 870 2211 5107 7349 
8319 6698 7549 8248 9424 8659 2319 7007 1007 
7427 4195 514 9437 2373 6558 4777 6348 3927 
3034 4839 7901 4244 8223 7591 940 57 6334 
2155 531 217 9901 1556 4448 5998 7889 4800 
9477 9057 968 1584 8722 8226 3961 3682 5518 
8059 9236 8044 4193 5261 2107 3916 1340 4998 
2104 4243 1904 3386 114 9487 9076 4437 419 
4380 9769 1440 5288 6030 4989 2803 4512 935 
1330 4293 3207 1350 9518 8459 2551 6103 6548 
8466 8425 6150 5380 2895 964 8118 5525 5270 
3130 6387 404 9904 9174 69 2360 7430 7102 
9946 6545 1826 1363 2182 7345 5978 7619 8176 
8105 1254 768 6414 1963 3880 1765 2578 4377 
1868 7629 3471 6241 9132 4693 2167 8666 1114 
1722 8481 7778 9447 9374 1775 839 6354 2667 
4444 2500 73 7492 4349 5392 4751 1669 2746 
8458 4040 432 5232 5056 8618 1299 5090 7519 
2411 9744 772 9650 4468 2248 4191 3578 2914 
6763 2292 2811 861 9409 651 572 7046 483 
2421 6200 2619 2648 4584 5643 8658 5974 3587 
9053 3663 3803 4278 4044 447 2196 5201 966 
5764 6612 5079 2437 3392 763 4657 4666 6803 
929 653 470 3565 9193 9305 5564 986 4568 
4217 3076 4346 3893 3726 4314 2286 8155 8353 
8172 4489 4362 2069 7787 347 1028 8030 5141 
8525 3559 3611 3822 1414 4870 1970 5042 5836 
4724 7858 4721 2937 1264 8742 2725 266 2290 
7497 7749 8124 3947 1267 3505 153 1347 6225 
2015 4235 9120 6844 3065 6415 9668 3404 2873 
3696 621 5452 9294 3500 1324 1621 3438 6458 
3261 1307 1877 2479 1938 5534 996 1753 7681 
4258 2801 2194 9930 7243 6596 4284 2154 5413 
3952 2986 4101 1894 5112 3099 3301 4318 7027 
4150 3987 5311 18 2063 1744 4480 1261 3325 
1166 3451 2926 1213 8573 7088 6375 7706 6830 
984 5644 5724 3871 7238 4147 7250 962 1770 
8585 7658 7358 9841 5441 6076 3837 1194 3084 
4697 2933 7407 5433 2230 4134 3288 4857 1491 
1691 7076 4530 4332 4375 1089 6491 2901 3399 
1419 2312 3811 4289 2750 698 1038 227 4379 
1348 3900 9530 1617 1858 1651 9536 1788 7859 
4017 4280 7823 6382 4373 6515 1771 177 5266 
3273 9227 9963 1337 1407 6421 6423 3430 352 
7690 6841 311 8102 9676 3470 5820 1081 4128 
4874 4410 3910 1800 6092 6148 2962 5798 1177 
3608 3067 8882 7659 3003 6709 9117 4631 7490 
2716 998 533 9422 2428 2935 4886 3801 523 
9784 1767 5709 8085 838 5039 4085 5504 6599 
3480 1434 9300 322 547 5606 7783 4999 5282 
7184 638 7077 2730 8302 6659 500 4966 9228 
6300 2635 331 3499 3577 8676 1136 63 3671 
1926 6212 1795 6887 9712 6859 3786 3522 7904 
773 2078 8251 2393 3981 2582 3205 4164 4307 
8136 2714 7998 6321 6080 5248 2945 1390 6815 
9624 4554 9887 5 2245 3318 3383 2534 6388 
608 6325 3723 6849 2915 6075 5605 5121 5763 
4726 934 4760 8860 9755 294 6147 922 431 
8164 3075 4202 5194 2908 4025 1272 376 8038 
3926 3181 8807 2471 5285 2686 1392 2609 4511 
4548 6982 894 130 3955 7923 6422 6998 4125 
3933 5938 5259 777 6687 1677 5431 7038 7554 
5461 1016 4688 421 1821 3497 8077 3443 8322 