# vtk DataFile Version 4.2
Generated by LIGGGHTS
ASCII
DATASET POLYDATA
POINTS 10000 float
-0.00539429 0.000894433 -0.0407562 -0.00282889 0.00145774 -0.0410045 0.00110654 0.000899001 -0.0410888 
-0.00625814 0.00245801 -0.0406216 -0.00447384 0.00243349 -0.040858 -0.00115368 0.00235075 -0.0410892 
0.000596125 0.00310325 -0.0410969 -0.00548793 0.00407158 -0.0407436 -0.000881608 0.00412262 -0.0410975 
0.001918 0.00432132 -0.0410586 -0.00665831 0.00541841 -0.0405638 -0.00492326 0.00581222 -0.0408101 
-0.00138835 0.00584548 -0.0410832 0.000420428 0.00535567 -0.0410968 0.00195318 0.00628599 -0.0410602 
-0.00636683 0.00728988 -0.0406048 -0.00458469 0.00761977 -0.040842 -0.00319793 0.00647198 -0.0409746 
-0.00173434 0.00760443 -0.0410416 5.32288e-05 0.00713889 -0.0411084 0.00159306 0.00809163 -0.041069 
-0.00544345 0.00939656 -0.0407434 -0.00366689 0.00916524 -0.0409367 -0.00151795 0.0093847 -0.0410816 
0.00195002 0.0098613 -0.0410535 -0.00627705 0.0111439 -0.0406232 -0.00311964 0.0114927 -0.0409836 
-0.00135753 0.011829 -0.0410805 0.000525033 0.0114144 -0.0410994 -0.00633044 0.0129414 -0.0406122 
-0.00460701 0.0124897 -0.0408516 -0.00300546 0.0132853 -0.0409932 -4.44625e-05 0.0131189 -0.0411034 
0.00187729 0.013518 -0.0410645 -0.00620872 0.0147656 -0.0406319 -0.00147082 0.0142118 -0.0410776 
-0.00341771 0.0151749 -0.0409618 0.00075992 0.0156769 -0.0411003 -0.00643009 0.0170845 -0.0405954 
-0.00461406 0.0167665 -0.0408433 -0.000493011 0.016969 -0.0410968 0.00250395 0.0161125 -0.0410226 
-0.00223117 0.0174296 -0.0410443 0.00263312 0.0181694 -0.0410148 -0.00620261 0.0188672 -0.0406359 
-0.00442164 0.0188003 -0.0408619 -0.00267014 0.0191712 -0.0410188 -0.000866454 0.0192065 -0.0410963 
0.000915835 0.0189734 -0.0410952 -0.0123079 0.000899897 -0.0392205 -0.0105849 0.000898126 -0.0397154 
-0.00886912 0.00128522 -0.0400625 -0.00716579 0.000899612 -0.0404719 -0.00393754 0.000898845 -0.0397025 
-0.00049472 0.000893854 -0.0402801 0.0032749 0.000897823 -0.0409696 0.00513974 0.0012223 -0.0407865 
0.00691211 0.00126839 -0.0405179 -0.0102172 0.00282371 -0.039814 0.0021772 0.00230918 -0.0407855 
0.00395124 0.00256232 -0.040905 0.00862595 0.0017169 -0.0401872 -0.0120597 0.00337755 -0.0392964 
-0.00846105 0.00302733 -0.0402208 -0.00691178 0.00383891 -0.0396733 -0.00395639 0.00378434 -0.0397965 
-0.00242935 0.00284523 -0.0399337 0.00326526 0.00391721 -0.0399426 0.00605987 0.00286187 -0.0406539 
0.00912958 0.00366898 -0.0400734 -0.0105156 0.0045964 -0.0397327 -0.00832191 0.00481691 -0.040255 
-0.00247323 0.00458022 -0.0404138 0.00480468 0.00413893 -0.0408255 0.0074045 0.00403646 -0.040429 
-0.012406 0.00603002 -0.0391914 -0.00941319 0.00621922 -0.0400129 -0.00370585 0.00554179 -0.0395184 
0.00351958 0.00560919 -0.0404972 0.00527516 0.00587387 -0.0407717 0.00705812 0.00579694 -0.040491 
-0.0082383 0.00755244 -0.04027 0.00306077 0.00722553 -0.0398472 0.00624839 0.0073927 -0.040621 
0.00837006 0.00700682 -0.0402421 -0.0120252 0.00778566 -0.0392719 -0.0103077 0.00775798 -0.039791 
-0.00714224 0.00877442 -0.0395396 -0.00261633 0.0083883 -0.0396893 0.0045965 0.0080295 -0.0403171 
0.0076132 0.00864546 -0.0402437 -0.0127737 0.00942955 -0.0390728 -0.00897062 0.0088983 -0.0393372 
0.00020172 0.00970008 -0.0406667 0.00369858 0.00945983 -0.0409349 0.00594687 0.00916149 -0.0406731 
-0.0120534 0.0110609 -0.0392964 -0.0104169 0.0104921 -0.0397668 -0.0086626 0.0104463 -0.0401845 
-0.00456449 0.0108412 -0.0401342 -0.00258908 0.0101738 -0.0398863 -0.000844231 0.0108034 -0.0397003 
0.00501295 0.0106828 -0.0407997 0.00678 0.0109021 -0.0405359 0.00857087 0.0101648 -0.0402016 
-0.00796585 0.0121707 -0.0403271 0.00187546 0.0112601 -0.0399265 0.00333102 0.0112769 -0.0409675 
-0.0126655 0.0131499 -0.039101 -0.00957986 0.0128678 -0.0399717 -0.00139531 0.0130197 -0.0397319 
0.00335235 0.0128471 -0.0400927 0.00495758 0.0125317 -0.040812 0.00672058 0.012731 -0.0405521 
-0.0107838 0.014163 -0.0396618 -0.00864695 0.01439 -0.0401807 -0.00460851 0.0141303 -0.04012 
0.000340493 0.0141211 -0.0396661 0.00197686 0.0148424 -0.0398615 0.00336481 0.014529 -0.0409618 
0.00555508 0.0142232 -0.0407233 -0.0121193 0.0152993 -0.0392812 -0.0098064 0.0157401 -0.0399241 
-0.00753905 0.0157967 -0.0400136 -0.00512965 0.0157255 -0.0394758 -0.00184684 0.0158131 -0.0403636 
0.00537048 0.0160111 -0.0407551 0.00835424 0.0149336 -0.0402417 -0.0127535 0.0169671 -0.0390728 
0.00390408 0.0168581 -0.0401712 0.00712949 0.0162432 -0.0404829 -0.0111045 0.0174613 -0.0395769 
-0.0092779 0.0174523 -0.0400416 -0.00762996 0.0176744 -0.0393612 -0.00348798 0.0176929 -0.0397915 
-0.00110994 0.0180307 -0.0397699 0.00115462 0.0173091 -0.0404574 0.00530771 0.017808 -0.040759 
0.00830518 0.0175903 -0.0402509 -0.0121426 0.0192001 -0.0392647 -0.00977362 0.0191762 -0.0399253 
-0.00801996 0.0191499 -0.0403135 0.00418252 0.0192032 -0.0408873 0.00691357 0.019204 -0.0405208 
-0.0153027 0.000897757 -0.0381472 -0.00986068 0.00089358 -0.0380659 -0.00802339 0.000895897 -0.038139 
-0.00560375 0.00111198 -0.0389963 -0.0020956 0.000901235 -0.0394585 -0.000478991 0.000902254 -0.0384875 
0.00152318 0.00121467 -0.0393703 0.00410044 0.000895879 -0.0393718 0.0058562 0.000979706 -0.0390025 
0.00764891 0.000894704 -0.038923 0.0102489 0.000975336 -0.0398064 -0.0157388 0.00263104 -0.0379714 
-0.0137508 0.00230754 -0.0387304 -0.0111343 0.00209552 -0.0384536 -0.00896893 0.00234991 -0.0386088 
-0.00728364 0.0021495 -0.0391867 -0.00366191 0.00237742 -0.0387182 -0.000479317 0.00248112 -0.0394264 
0.0029311 0.0023351 -0.0391522 0.00728801 0.0025949 -0.0393661 0.0121574 0.00191373 -0.0392681 
-0.0101243 0.0036759 -0.0382375 -0.00535665 0.00288871 -0.0391111 0.00124038 0.00301021 -0.039419 
0.00537877 0.00306059 -0.0390057 0.0107061 0.00289328 -0.0396842 -0.015067 0.00493963 -0.0382392 
-0.0135121 0.00407878 -0.0385064 -0.0115585 0.00475587 -0.0382626 -0.00841477 0.00405479 -0.0386376 
-0.00689277 0.004922 -0.0382405 -0.00532651 0.00468662 -0.039074 -0.00261104 0.00442058 -0.0386314 
-0.000960153 0.00421452 -0.0393085 0.00564285 0.00479867 -0.039384 0.0103408 0.00447724 -0.0389173 
0.0120717 0.00416555 -0.0392881 -0.0101188 0.00582064 -0.0384167 -0.00764716 0.0061709 -0.0392812 
-0.00211803 0.00638069 -0.0395351 0.000138945 0.00563319 -0.0392103 0.00186526 0.0052704 -0.0395355 
0.00344715 0.0053812 -0.0386931 0.00933055 0.0054566 -0.0400312 0.0120845 0.0059771 -0.0392852 
-0.0159329 0.00647645 -0.0378946 -0.0142689 0.00661349 -0.0385527 -0.00891975 0.00715854 -0.0385066 
-0.00675202 0.00744618 -0.0383901 -0.00552198 0.00646266 -0.0392496 -0.00392872 0.0072889 -0.0391518 
-0.00044432 0.00731923 -0.0393996 0.00130861 0.00697716 -0.0395407 0.00478742 0.00647735 -0.0391639 
0.00710323 0.00741378 -0.0390392 0.0104968 0.00710595 -0.0397421 -0.0156078 0.00838861 -0.0380227 
-0.0133256 0.00805578 -0.0380655 -0.0101715 0.00837216 -0.0381133 -0.00543235 0.0082531 -0.0393577 
0.000794867 0.00868253 -0.0393096 0.00939298 0.00857047 -0.040016 0.012094 0.00779596 -0.0392808 
-0.0111177 0.00989149 -0.038235 -0.00404914 0.00938826 -0.039194 -0.000964233 0.00903644 -0.0394095 
0.00256913 0.0089424 -0.0396349 0.00468971 0.0095846 -0.0394171 0.00638584 0.0090516 -0.0389359 
0.0110629 0.00928798 -0.0395824 -0.015827 0.0102094 -0.0379436 -0.0140005 0.0106724 -0.0386461 
-0.00773282 0.0102431 -0.0386647 -0.00598605 0.0101068 -0.0391906 -0.00414446 0.0112564 -0.038323 
0.00752025 0.0104329 -0.0387766 0.0102111 0.010855 -0.0398122 0.0123943 0.0110376 -0.0391909 
-0.0160447 0.0121647 -0.0378391 -0.0128091 0.0118355 -0.0378671 -0.00924645 0.0115044 -0.0388536 
-0.00698574 0.0118594 -0.0388567 -0.00529195 0.0123049 -0.0392164 -0.00338484 0.0124168 -0.0394665 
-0.00154566 0.0118214 -0.0383979 0.000446053 0.011857 -0.0390303 0.00294642 0.0119528 -0.0385871 
0.00452673 0.0116049 -0.0393482 0.00679598 0.0120709 -0.0388865 0.00874539 0.0118928 -0.0397326 
0.0112156 0.0123435 -0.0395488 -0.0143286 0.0125423 -0.0385214 -0.0110037 0.0124796 -0.0389555 
-0.00818272 0.0131962 -0.0388715 -0.00429905 0.0135795 -0.03844 0.00174229 0.0130535 -0.0393406 
0.00495985 0.0133877 -0.0392355 0.00788454 0.0134295 -0.0393727 0.00958274 0.0134692 -0.0399663 
-0.0157366 0.0140192 -0.0379713 -0.0139714 0.0143021 -0.038652 -0.00936539 0.014485 -0.0384604 
-0.00759878 0.0148494 -0.0384892 -0.00621538 0.0138627 -0.0390756 -0.00294311 0.0141909 -0.0394439 
-0.0012578 0.014693 -0.0390845 0.00316892 0.0140478 -0.0387747 0.00672711 0.0148001 -0.0394871 
0.0120436 0.0139149 -0.0392969 -0.0150695 0.0156661 -0.0382414 -0.0133195 0.0157852 -0.0378435 
-0.010648 0.0157393 -0.0383508 -0.00332203 0.0159594 -0.039348 0.000599941 0.0158651 -0.0393322 
0.00441496 0.0150636 -0.039574 0.0106046 0.014928 -0.0397095 -0.0160663 0.0171011 -0.0378373 
-0.00863291 0.0163033 -0.0386845 -0.00655966 0.0164232 -0.0386434 -0.00103315 0.0164644 -0.0389046 
0.00281336 0.016138 -0.0389471 0.00576292 0.016241 -0.0390148 0.00770763 0.0164748 -0.0388017 
0.0093608 0.0162037 -0.0394602 0.0108325 0.0172202 -0.0396539 0.0126054 0.0163925 -0.0391231 
-0.0144144 0.0173218 -0.0384983 -0.0117538 0.0179954 -0.0379856 -0.00991669 0.0174706 -0.0382356 
-0.00522816 0.0175229 -0.0393302 -0.00219204 0.017727 -0.0383736 0.000386284 0.0175569 -0.0387595 
0.00359059 0.0184355 -0.0393737 0.00664499 0.0177092 -0.0395614 -0.014071 0.0191903 -0.0386221 
-0.0103707 0.0192062 -0.0382361 -0.0085325 0.0192009 -0.0385944 -0.0067761 0.0192066 -0.0389754 
-0.00461313 0.0192005 -0.0391179 -0.00271304 0.0192103 -0.0392288 0.000216217 0.0192028 -0.0394607 
0.001998 0.0192036 -0.0396771 0.00545687 0.0190717 -0.0394864 0.00832936 0.019198 -0.0394191 
0.0100683 0.0192044 -0.0398509 0.0117977 0.0192046 -0.039376 -0.0182021 0.000898312 -0.036856 
-0.0162795 0.00144843 -0.0367343 -0.0132754 0.000896374 -0.0377174 -0.0115507 0.000896344 -0.0371903 
-0.00594941 0.000894289 -0.0372538 -0.00421914 0.000892042 -0.0378841 -0.00196876 0.000896451 -0.0374855 
0.00116573 0.000896485 -0.037639 0.00291062 0.000894234 -0.0380403 0.0093217 0.000895827 -0.0382748 
[...]
POINT_DATA 10000
FIELD FieldData 7
id 1 10000 int
2882 8958 5103 5471 3769 3775 9722 5933 4582 
1719 57 8228 7383 9965 9912 3395 7917 7370 
5716 9647 1610 3320 944 3213 7146 9931 3732 
4772 911 8233 5940 3096 1101 2620 2821 5003 
3664 746 3509 2252 8201 9141 7084 4326 5833 
8420 2828 2328 3054 7197 4044 7953 111 1219 
7396 9783 3399 1761 7427 3190 9485 5289 2016 
4424 6617 9410 8713 1579 4200 9938 8627 3415 
644 7865 3551 9100 5826 6031 9534 3812 8786 
8498 226 8853 1976 8799 4858 8701 1200 9202 
1252 5888 9238 5383 9907 9272 4624 1196 7052 
4227 212 9229 7318 8101 9 5069 1126 7895 
3186 9710 8794 4982 3564 9869 313 4681 3651 
5432 6147 2724 2957 7651 6493 7189 7683 5258 
7684 8493 9523 9716 4111 9446 5735 8092 8380 
7439 9153 3139 795 8425 5417 6440 9200 2488 
9995 9675 8396 5564 9292 4996 1946 6973 1338 
6747 685 8185 7547 3316 9361 1931 8435 1985 
6100 9411 5638 7003 8348 1361 850 7588 3278 
1850 6259 3990 8777 7915 2399 3957 5907 3540 
1440 9990 1809 7331 5965 8787 6746 7615 3584 
5371 7008 6093 8506 5910 3894 9445 5255 2750 
9621 1156 6562 440 4661 9586 4054 9460 9299 
9511 9827 9731 7495 9570 9246 7595 136 5262 
672 4992 3511 9277 5462 8106 1696 8093 9454 
2894 9649 689 7969 5527 5861 5037 6848 9943 
9873 8718 7164 6844 9733 4888 9427 5979 5046 
2386 7149 9234 4556 2709 5850 7361 9673 8219 
7730 6932 7233 5457 9344 9624 1755 4408 185 
782 9815 3930 1637 5284 2839 8817 1895 5189 
1308 9552 8046 9913 5532 9538 6511 8612 1241 
4948 7751 7596 2892 7950 1893 9134 1506 6200 
7855 1881 9707 7407 9919 8210 2514 4798 3047 
484 4023 7334 1601 3676 8517 6626 6718 9829 
9772 7783 1840 2338 6459 7497 6346 5743 9757 
9666 5143 3304 7889 522 3501 9857 8685 5396 
8160 987 6145 9326 435 5243 7286 9458 7002 
2638 3996 970 8650 8857 2520 1660 7421 7777 
9138 5283 7523 8289 9864 3151 9804 1430 554 
5886 1049 9285 1630 2869 9245 7869 3250 849 
501 8005 9549 6618 4016 5004 1861 7629 6661 
8004 4764 9826 7732 4207 4844 7721 9127 4714 
9074 8433 5021 8508 9945 2171 9142 1124 3922 
7266 1762 5774 9223 2473 5398 2965 2469 1541 
9641 9951 7522 5298 5348 9810 7094 2507 7498 
4668 7659 1317 5156 3542 4938 6495 383 7534 
6536 9964 9976 3117 9991 9472 7283 5544 7511 
2312 6116 8236 846 8343 9174 5577 8861 4076 
2172 6756 2509 1878 7790 6263 4123 4336 9831 
2772 747 836 7367 6088 5419 611 8580 260 
8195 129 5034 4813 7328 6212 2949 3698 7709 
2701 5166 5785 9767 5520 6058 8131 211 7365 
4022 3468 5751 5355 5354 871 9920 3718 4769 
8760 8528 6996 5604 3913 9895 8354 6337 4154 
2426 3952 8504 6146 4951 4752 1818 2567 3874 
8810 19 199 5437 9199 9555 7303 4780 9541 
3431 6836 9530 4278 7215 1339 6908 4257 302 
1322 7749 9850 430 9854 7838 7268 4069 7175 
7587 4731 853 5102 9378 5091 9642 591 7125 
6382 2104 3773 5421 876 8710 190 9960 8147 
8536 3176 176 8110 1587 6802 9560 3256 9863 
8678 1995 563 7055 316 9136 5351 3880 1700 
6411 6897 9791 6024 5096 1655 6995 8258 419 
5909 8965 5730 9116 9750 662 7360 9294 7483 
9550 2187 2017 8636 4477 5343 6592 3580 6110 
1949 4252 161 9928 6700 9738 2549 718 6764 
9121 5427 9680 124 387 3938 6329 9950 4647 
7702 5025 6374 105 4186 4836 421 7984 4294 
9648 7015 9504 8014 4634 4219 5509 8573 6227 
6683 2682 1088 5769 2413 5806 2 6315 1358 
7163 5739 475 6311 8229 3574 2518 917 4758 
9423 2599 8053 9884 781 1709 4349 191 5645 
9045 3080 4688 6175 4602 9779 7690 5819 7419 
8184 5641 9838 2278 5078 7640 8411 3312 5740 
5614 5791 6817 3462 9494 5570 9606 8729 3865 
1089 9616 5860 7839 2817 6400 9562 6161 9787 
8045 4270 5984 6833 647 9983 9345 2910 9275 
352 9432 3481 4355 1551 4396 85 5434 7873 
1165 1024 4119 8322 6585 7254 9718 1852 3188 
7324 2244 2186 2917 4718 6142 9346 2801 1914 
6179 5779 5214 9834 1221 3998 7493 6866 4576 
7723 8524 758 394 1494 8632 1727 710 9282 
4305 8357 9746 4399 5167 7098 9585 8324 9652 
1567 1415 9788 9759 1293 6657 2528 7750 5973 
8672 3834 6413 8003 7584 3479 2097 6256 8532 
6283 8496 3704 7655 4389 3490 4225 8266 940 
9376 8583 3743 6187 4440 8216 8933 2622 5450 
9405 5140 8189 7374 9930 1484 6750 7967 18 
1501 2308 8064 1572 2169 1853 9527 6786 2763 
9956 2468 9521 6814 6903 5738 7835 7851 5065 
244 7815 208 8602 9067 2521 5119 9830 7859 
3455 1118 4540 1287 9548 775 8125 2033 2416 
5571 7056 5953 9387 2206 4578 8006 4190 4446 
3594 5435 6359 7518 958 6232 7087 3675 7307 
8830 1138 8296 6077 8427 5409 2378 6532 8613 
7309 371 6630 412 6261 7257 283 8781 920 
1228 3646 5781 5 4747 2591 3966 9582 7216 
6392 9745 9778 4321 9580 14 3237 1008 4547 
1030 9313 6521 7858 9797 8486 6381 7729 5196 
8779 2080 3459 4015 6975 7180 711 2086 4490 
3889 779 5322 814 5489 9764 6034 8285 9615 
2888 9522 1482 5770 5274 485 9893 6302 1347 
4470 9689 1841 6003 193 9921 7477 3554 7598 
2762 548 474 7532 9147 2213 6696 8337 248 
4251 1681 7573 2310 9879 8424 6207 7347 5301 
3847 5124 5766 8798 2680 1956 1419 9795 8577 
3128 9269 2796 6172 5072 9568 960 9459 546 
3670 9700 5030 4795 1299 6869 630 2205 5741 
5345 8758 9626 4699 9343 6363 2059 7455 1154 
3904 5613 732 361 9579 8156 1180 6213 5179 
476 6463 4689 3980 3107 3529 1966 8432 5798 
1499 9728 2153 921 8631 1017 4035 7673 9904 
7551 4379 9256 664 3471 9591 8385 4047 6803 
5109 9574 4645 8136 2393 7085 1491 1586 3159 
3887 9360 7822 8921 2196 5765 9002 5338 4725 
3719 4146 648 5018 9667 3078 5635 4371 9847 
3396 91 6981 8164 3361 9989 429 7210 6713 
907 8695 1257 7335 915 8759 831 8217 9131 
3053 9837 6365 9908 2430 5386 9188 5490 214 
4436 2969 6330 9303 441 7795 4285 5517 5778 
4180 1467 2241 7448 5972 5807 7509 1864 6372 
5931 1184 8805 4421 7748 8024 6543 9064 7226 
8872 3687 7841 4450 8700 3758 9609 4856 8066 
8772 5159 3927 9610 9860 3563 9206 9593 4340 
7198 668 5560 8676 9734 8342 5783 6880 7039 
6968 9009 2028 6431 6368 7338 2002 8352 9493 
8083 3840 1206 337 9374 1372 9368 2167 8481 
9916 8287 2954 675 9708 8276 4691 2349 8263 
1648 7201 2199 6577 5901 6826 439 600 3779 
7672 9763 8620 1969 8753 6816 6074 276 300 
1253 8158 2372 8209 6550 9012 947 5870 5657 
514 7606 1021 3248 2541 7097 7305 2643 9306 
3738 7517 2652 1363 3049 4968 564 349 2394 
5191 3420 7966 4934 1653 9164 3303 7128 704 
6067 2721 2723 7299 4073 4072 7460 3163 5408 
5036 1987 9599 5090 3544 8873 3051 2539 887 
1135 200 4281 6168 3565 6111 8293 1043 3091 
6872 4420 9828 8202 6013 2634 6155 1202 1230 
6871 629 1413 4807 6504 2132 7634 9363 5075 
9501 2036 5463 6316 565 5310 8444 7808 8696 
7231 7416 9851 1311 5365 9293 1620 7575 8176 
9882 3306 8720 5786 8070 9755 5999 3735 4138 
4588 7516 285 5573 2730 5800 6229 4226 8542 
9544 4538 3731 6138 3064 1728 1511 5949 3832 
6891 6983 7550 3531 8016 524 8833 7662 1326 
1315 6163 7764 7032 225 4189 4174 6917 3371 
4403 2841 3861 6219 7898 8821 7464 7562 1438 
5254 6731 8697 7256 7371 3469 1758 6537 2615 
7569 7975 1286 1845 5539 133 773 8370 4514 
8139 666 7281 281 3199 4594 8325 293 3414 
1451 9179 3133 2458 541 6980 2485 7638 7513 
9613 7081 8450 8213 805 559 659 9232 6955 
7842 2045 7012 3781 3103 7217 4821 2275 4253 
7310 9525 1691 2088 5636 7945 3622 7897 4999 
7492 2215 5982 9576 2589 999 7590 8584 6719 
1332 891 6239 4680 6445 2503 42 331 1303 
6018 8823 3020 4429 3686 223 2834 2880 9853 
1099 5016 2366 1147 5451 730 9841 3101 9756 
2843 7437 9208 4113 1605 1509 2636 4686 4465 
4244 268 7646 8747 7445 7537 9412 73 154 
7145 2650 8223 6727 9794 8686 3753 9328 7151 
774 5082 5895 8566 2444 7119 2516 1292 8604 
3761 2824 3453 2905 1640 7265 6278 8461 6223 
623 3976 6623 9357 5721 4580 6343 1645 3123 
4152 7883 6877 6004 5840 9768 9905 6421 8876 
3389 8734 4088 7819 2524 4864 354 3550 816 
4117 9082 6299 1526 7779 5594 8388 7963 6295 
9760 3653 4930 6022 5186 5918 9681 2984 3839 
3989 2492 8930 5478 9715 2770 7449 5358 6902 
6699 8436 4945 312 1899 5290 5698 8630 6253 
8825 6590 7059 2502 1508 3283 4245 1820 9645 
2063 6224 5165 2923 1397 934 2055 8844 2707 
8609 5728 8058 7327 8170 5906 4 7196 8588 
9253 5937 2681 6939 4829 6234 928 2781 6383 
6189 1769 4148 2110 5589 7688 4630 5963 5039 
6711 9321 9730 1573 8579 393 7136 2148 7812 
5047 6669 3925 28 4915 8329 9706 2746 2112 
5590 6029 3204 641 1930 9029 2396 3209 149 
6840 868 5324 4505 8140 2261 9539 3222 5608 
8035 3351 6005 3740 8901 4508 7065 6648 3465 
1608 568 8017 5936 586 8843 9588 8956 5792 
9488 1373 4727 801 3577 2105 381 1890 6556 
2788 2677 9198 3933 2268 5557 4258 7772 2290 
3238 3259 9903 8091 4860 748 8992 9162 100 
6298 9594 6477 4543 2001 7626 7224 9236 427 
3319 4695 327 5648 9825 9769 9744 5364 9129 
8456 1384 4042 8657 6692 6118 1835 6489 5445 
4302 7943 3266 6520 6230 9856 3149 8824 8840 
2798 1162 2848 3301 6998 8658 4605 3632 2025 
1435 7155 3891 6547 3280 450 8792 7274 6285 
2180 1249 9252 2356 4648 6174 2034 7972 8559 
2911 4712 1873 1836 3365 1837 3298 5019 5787 
4828 4880 8682 5504 8910 598 382 8964 5287 
8622 749 9929 3817 8576 8961 9690 7450 3851 
444 8060 499 8946 8776 4249 6017 4367 5222 
2768 8135 6452 142 9073 1675 2688 5380 3439 
878 8026 9877 997 8797 8054 436 7270 3386 
4280 1312 5374 6904 7824 5234 9803 9156 1216 
4292 9823 7043 7271 390 2446 1159 992 2375 
6919 7355 6978 7720 7695 3793 5051 7911 6771 
5974 1488 4380 6139 4933 179 4744 7490 12 
4080 5875 6296 1226 7794 6620 5459 3487 6558 
6281 5498 9384 3443 2703 9461 4633 8405 6690 
376 3841 8142 2578 3413 8809 5629 5533 1764 
9239 7689 5005 3525 9084 8977 894 3464 7250 
9033 4308 3934 7632 4885 780 1746 882 9695 
6795 8225 9015 8835 8806 5333 1909 2612 9934 
1712 8022 2983 9403 8326 2411 2981 6487 3345 
2913 1036 6424 1072 3553 7698 2050 3931 863 
4382 2019 7006 4585 8415 4960 1395 3295 9444 
8970 885 8081 2470 538 1947 2342 1961 9674 
5329 7999 6759 4612 7759 4940 2501 385 6304 
880 4127 9575 5799 9729 9532 2562 9351 6659 
3756 8096 1979 8321 2248 6112 6805 1028 3857 
4215 3291 69 3411 5404 4271 8659 9266 2236 
6850 2451 6964 4870 812 762 2998 8188 4046 
6414 5615 3390 8242 3991 9881 3573 6561 5856 
2318 574 4185 3819 5171 3273 8366 219 9496 
1 9914 8571 9329 9602 1569 8707 4406 4732 
2026 1851 156 5597 2096 8831 4791 6065 9465 
712 6412 7296 8590 8538 9426 2783 979 5479 
9625 8525 1575 9796 3189 2198 3782 8744 9577 
8165 7431 8077 5122 2675 3205 7514 5146 6944 
3063 5748 9887 1378 8151 8097 4012 8257 2365 
4559 1421 6225 6971 8822 6480 4284 8000 4902 
6644 417 5241 4121 35 2437 2789 8311 8902 
2311 6744 9498 7768 8783 542 9668 7668 5823 
792 2475 4728 6409 2067 6457 34 2125 9671 
5690 2177 8477 5048 8511 5620 9149 7241 2022 
8687 2864 906 700 956 5660 9510 2639 1778 
7339 4398 6864 9932 4052 575 6284 3975 2510 
1679 9324 545 6912 8157 1370 3167 4636 2696 
9406 1974 9123 5107 8749 9146 2060 607 6152 
8310 6559 6328 691 5492 2005 5137 2094 4306 
5318 9203 7877 7990 2865 7558 1684 1962 6063 
1978 9201 9430 6354 3881 7896 3744 3217 9055 
4986 299 8841 7956 654 4298 614 7322 4045 
8122 5312 9463 1806 1035 9898 6490 5209 9959 
2505 471 6788 8412 9031 1298 1148 5804 7939 
4865 5780 8621 995 63 8889 172 3495 9241 
8194 1740 7660 4773 9985 6770 4256 9968 8919 
9231 7259 9846 6319 3896 9392 4459 752 4162 
9598 7486 8480 3555 4232 9691 4703 7038 7153 
1615 2550 1724 2990 4466 9495 1264 6297 6041 
4640 5693 7722 707 5224 9901 3539 7974 7401 
2594 7408 4135 405 8454 6929 4799 8484 10 
7758 7703 9836 5587 9812 2299 8155 3326 389 
2048 569 3898 1266 971 770 561 6882 5346 
7578 679 2529 4519 342 167 3852 3962 3153 
2648 2121 1638 3845 7686 347 5829 796 3012 
9502 9612 1915 6799 5080 3530 1369 6622 2367 
7467 3794 5586 3673 6048 7852 3011 314 2363 
3674 7088 9561 7040 2123 7951 5944 1105 5756 
4739 1254 6217 5610 7983 1788 3292 9416 5494 
4095 8752 8763 3279 5655 2687 3356 1273 1748 
93 5599 8315 4489 3498 6800 870 3747 8827 
1354 7731 5205 1095 5225 2174 1031 1959 5391 
3423 532 9614 8846 7376 6273 3600 6448 2448 
6997 3749 6443 7487 1450 709 120 350 9509 
8392 1133 9811 639 751 3737 5658 4338 9221 
1581 3458 8394 3160 308 1237 3178 3831 4499 
3941 7188 2089 6417 5470 6326 4623 8888 2685 
5170 9187 2764 2733 4704 4495 398 8860 4939 
1901 7061 9151 8957 6344 186 7133 1993 8746 
6429 671 7944 1542 1936 4003 5757 9395 4428 
6216 3081 3332 7879 9155 6855 1770 1928 2242 
455 791 8641 6909 9618 2466 2477 5976 7946 
898 2066 2064 7263 2459 8667 646 8027 4614 
7045 344 9240 1982 2955 3002 7554 4767 5666 
9505 1082 1898 8149 2076 5950 9166 1882 4114 
5232 3902 6204 7947 544 4129 1341 5688 9482 
5022 4572 4137 1448 4815 3223 2512 2874 9600 
9741 4481 8465 9005 2137 1027 3400 5672 8148 
543 6787 5235 6867 1789 7907 7913 2272 9178 
7942 9545 5134 9758 4792 8808 4191 3804 45 
5514 416 4011 5308 5349 7955 3214 4488 6449 
9917 7643 1442 7184 9732 1948 9678 5820 6677 
5370 81 8204 4954 8377 500 396 1371 9646 
6186 753 3771 6181 9862 6535 3475 9417 4291 
363 6027 2115 7075 8132 5558 2921 7350 9402 
6827 8948 1577 3603 9349 408 5151 6898 8181 
5369 1975 5767 1409 9578 3505 6849 8856 7761 
4315 1707 4851 4314 8802 6059 6091 1665 278 
8912 1920 5277 1604 6679 6517 7057 4657 9032 
1265 5341 2065 1570 6408 4800 8960 3866 5865 
3621 2726 5148 8080 5652 9480 8254 2976 414 
2808 3083 1268 359 5024 2190 8072 1844 1229 
7617 8725 8646 2384 7887 1892 3247 6811 7763 
7475 2415 2672 8615 4467 2069 1039 4607 9144 
8934 2037 95 2480 7446 7435 9341 4475 905 
3162 8495 38 4385 5477 9650 4218 1263 7566 
4010 2216 890 7366 7194 1842 1671 7235 5442 
2362 5890 7090 5540 1824 8379 3003 562 8372 
61 403 1188 5710 3112 9952 3568 7799 5551 
2143 8294 25 8680 1063 800 4919 7609 7333 
1717 2056 9725 5701 1557 1116 755 7158 490 
6564 8941 6714 5911 336 6300 4962 5157 3559 
4924 8368 1943 4216 1375 1067 9935 9394 3783 
1502 5152 9604 8458 832 6474 4570 7115 3923 
6267 6541 6702 4837 9091 7488 4486 103 1596 
990 5761 4173 5230 7422 8009 2616 9627 9312 
3695 1921 1496 1554 1131 5673 7354 2091 2201 
7980 5245 5694 141 9835 9089 8270 3995 740 
7306 1582 3833 8245 5513 5682 1563 8668 2255 
8119 8742 3142 2212 6502 1776 9248 4239 3031 
5543 2934 785 8675 867 401 6828 8522 58 
1166 7058 9894 5885 991 7781 5831 9886 8629 
3255 2377 9543 9889 4181 3640 6208 8706 7062 
6166 7510 9633 6405 4125 4789 4212 6079 9439 
2403 6873 8260 8262 9979 4632 8918 165 3432 
6663 6416 4453 1300 2904 3445 8251 9947 2235 
4537 4497 9806 5055 2785 2313 6660 3239 148 
8785 2765 7717 4158 7831 6993 2950 1157 432 
8601 8692 2802 5656 5378 6057 8186 7641 2012 
5315 694 1012 4020 5486 9358 6685 6165 4487 
7124 4894 1819 9622 6055 2537 7474 9966 1246 
5683 1992 2729 1834 6743 5677 470 1235 4654 
3950 1938 6829 4210 670 4830 3797 5763 8300 
1628 3742 8180 6810 445 5161 9334 7255 82 
2197 8462 2885 3712 589 1091 2719 3507 2525 
7738 9663 4819 1643 1207 5815 3786 9661 2324 
6941 2400 1110 2777 7740 1726 6366 1023 4049 
7904 4343 4038 9475 6221 3338 5112 6597 1418 
983 5399 9301 5862 2209 4876 3039 1795 5229 
62 2062 6306 9107 4231 2427 7878 446 5319 
7593 813 6785 9686 3818 4347 4344 5810 7797 
4873 3694 687 7258 5809 2286 9749 4498 5336 
2070 2483 1782 1048 8982 4161 1466 1688 9553 
1187 3650 2182 1568 8877 6694 8452 735 4071 
9063 7482 5631 6784 6513 1476 7816 9072 6322 
9420 9658 4358 6726 1968 6465 4442 5285 893 
8222 8341 618 5628 9785 9381 2708 8897 3005 
30 7828 3364 2522 8038 333 2933 4202 5924 
3215 4263 5474 1382 6601 3777 3766 9839 4051 
5204 5679 7830 2325 8813 2419 6945 2341 8267 
5011 9670 3572 5097 6246 9536 3506 8891 4386 
5256 7457 9302 1743 9630 3624 5524 9133 6348 
5987 230 4469 4155 3321 1877 358 3450 400 
3384 734 3288 3842 9335 1310 99 5847 7505 
2527 7389 4922 2246 1408 1062 6807 2831 360 
2928 1591 2431 674 3369 6303 6876 1117 5664 
8997 4989 9004 8408 9557 9259 2264 9086 6033 
6900 4523 2337 6218 2992 1590 2853 1903 2619 
290 6422 7586 790 2192 4197 6765 3060 2812 
4979 1247 2735 2590 9994 8704 809 1523 7965 
1884 9820 3272 7894 2100 2670 2856 3597 4269 
8905 1109 5464 7394 678 5556 1274 7870 4032 
9926 7737 4606 5916 3954 5678 5397 9110 2849 
6136 3521 3730 1198 4567 7985 9805 9386 9327 
585 3625 8991 2608 9739 9855 777 5330 1766 
6990 9456 9807 5805 6549 7166 7135 5788 3684 
9870 4949 8417 459 9688 345 1174 4151 74 
9137 6518 2970 5340 6367 4504 2799 7846 4741 
9949 3914 1233 9999 1173 3863 6352 6739 9911 
3125 1812 4102 1910 5023 9443 6922 8335 8100 
9362 4878 7356 7857 9672 4720 1741 3043 6512 
6196 7343 8908 5606 5957 4692 8879 3264 6290 
8847 4375 9709 3561 8373 714 365 7020 3497 
9318 4826 1515 122 6438 5880 2347 8709 638 
9844 2875 222 2547 7134 1631 5251 1038 2778 
5104 5197 8306 3127 7102 3082 228 8819 8526 
964 6842 6624 3677 4053 7652 2711 9687 1242 
1285 7313 5902 1432 4901 8439 2004 3086 5793 
6688 7414 8253 1751 6913 2641 1592 3330 386 
6481 7033 2072 1703 1473 4511 1276 1158 2024 
6107 1580 5841 2753 862 9001 8664 7577 8774 
6745 2279 7891 2653 6838 265 5569 5689 6691 
3868 9692 9747 5729 8645 5412 7540 8356 7388 
6570 9097 8907 2191 236 2280 6094 7581 9010 
1832 4886 3693 4435 288 8643 4507 3519 9766 
7109 5977 3228 2381 6099 4175 663 4037 1368 
8501 9388 7024 9205 3088 2605 3722 7049 5384 
8603 7041 7678 7162 5339 6151 4524 2937 4558 
5361 3050 7282 5700 4086 9556 5286 3347 5446 
5687 9258 5313 4735 6183 3454 2678 661 1997 
5759 9077 1427 6681 9347 3482 4145 3838 3067 
2832 8255 6526 9268 8927 126 8669 8340 177 
6469 447 3129 3194 3585 4274 2852 9528 6992 
5448 7459 8730 6703 8515 3263 8078 8541 727 
6293 9486 3956 3329 9906 5433 2734 2294 4384 
1485 9295 8410 1407 1104 4062 6792 2287 3807 
6643 5816 2397 1965 3466 1912 8099 4628 3949 
6140 8803 3639 9909 5043 4464 4574 4055 26 
823 8754 1474 5773 593 1934 1599 4414 673 
1559 1388 9551 7170 7968 4562 9419 3523 4590 
9377 6791 4995 4006 4156 9640 5685 817 9659 
1680 6274 1521 482 3090 5257 6865 8050 1306 
3862 6936 6574 4447 1161 8224 2902 5845 2601 
9393 8505 6351 7187 8 7671 5674 2747 3144 
6427 5185 8460 8954 8065 6042 77 3137 1076 
2491 5867 6060 5925 6102 9824 2790 1854 5423 
8150 6542 5857 5859 8404 1134 2266 9698 54 
3739 3434 9308 6602 3713 2270 8683 5501 4958 
4927 8143 1651 7752 6831 594 1334 2825 7798 
3447 6039 2993 9676 5725 3353 6709 8177 6447 
6573 1282 6182 3733 1808 4928 1821 9024 2698 
772 4240 6539 2689 7456 4675 7113 8938 3619 
5921 364 7221 2881 765 3407 4840 5388 941 
5900 7725 6587 6555 5074 296 4877 9219 8703 
7317 4195 9185 4956 7314 808 5242 8037 1490 
7813 7616 7589 1532 3437 612 7375 6717 6619 
3700 8365 8304 4009 1654 9085 1612 8896 5502 
8591 3195 1649 3667 5696 8881 5480 7091 2517 
4378 6773 8870 8575 3405 2334 7352 2805 9954 
3071 3484 406 7300 7650 8317 6716 9309 3805 
5522 3721 627 6035 4808 2891 5199 8032 930 
9013 8866 8962 3157 6861 2977 6339 3696 620 
4485 7694 6729 9878 3680 3201 4785 366 9992 
9547 8414 7624 9491 4724 8795 566 232 1869 
1530 3042 699 2179 6819 8883 9542 7025 5882 
2134 6313 6533 6252 2695 4599 3307 9891 1913 
8768 4895 7186 4171 1652 5967 7447 6332 3688 
8826 4304 6697 4935 3421 4513 8079 355 2095 
1463 6178 7793 2699 7633 3829 33 4187 6129 
2439 4193 9436 5553 7206 5954 1478 9224 6485 
8413 7563 2714 7557 768 9849 2663 1810 3820 
6323 4075 7298 4502 4743 4923 3023 2640 2232 
8714 8193 3299 3715 6498 1151 3014 3944 9572 
3461 4348 9173 7847 7406 7248 5085 7825 9925 
9664 1321 4397 1239 1798 6796 317 2647 369 
272 3985 9172 6608 837 1350 4259 9383 4811 
108 7843 834 6385 3467 2327 7400 6821 840 
7832 7432 5592 2920 2515 3541 2237 6231 6115 
6387 8895 1558 3754 1958 5270 8350 7924 2592 
2081 9442 8654 3628 3093 2293 4050 2754 5955 
3109 7993 3787 1756 2463 1411 2974 7713 6280 
7834 7034 6488 1178 303 3337 7458 4850 8839 
8261 4030 8661 6735 5917 4360 4711 8655 733 
4563 9211 5863 6606 5073 4991 4458 4350 3126 
9564 7172 7614 7294 2078 6394 2963 6775 5511 
7293 7622 6321 4303 6905 9128 9058 7572 4362 
8717 2912 8625 1446 6734 587 6388 279 3074 
923 4536 1973 9782 7415 4535 3480 9209 725 
4592 7908 8914 5602 3548 7715 6636 8473 6007 
9286 8183 9320 6947 2003 1639 8154 3936 102 
2015 9474 8557 6610 5797 9546 4474 7380 6857 
525 6798 6701 7773 5563 9006 4641 5707 3233 
2543 1666 1952 1718 8431 9948 6334 7237 9289 
9226 7234 6851 3785 1096 3072 4541 892 6439 
4660 9517 3034 2333 2715 5802 7727 8570 825 
794 2713 1356 1619 7923 67 5261 5591 2136 
1085 1359 8974 7594 9168 5147 573 7685 3729 