# vtk DataFile Version 4.2
Generated by LIGGGHTS
ASCII
DATASET POLYDATA
POINTS 10000 float
-0.018719 0.0011677 -0.036594 -0.0181595 0.00285091 -0.0368773 -0.0183982 0.00462862 -0.0367525 
-0.0182117 0.00664803 -0.0368464 -0.0190271 0.00819115 -0.0364318 -0.0187809 0.00996651 -0.036568 
-0.0185612 0.0117554 -0.0366686 -0.0187837 0.0156036 -0.0365642 -0.0187506 0.0191528 -0.0365749 
-0.0201498 0.00239348 -0.0358222 -0.0186255 0.00324044 -0.0351902 -0.0199815 0.00418263 -0.0359252 
-0.0199394 0.00600791 -0.0359387 -0.0205345 0.00767325 -0.035605 -0.0206165 0.00946615 -0.035555 
-0.0200521 0.0111413 -0.0358775 -0.0206636 0.012795 -0.0355363 -0.0189246 0.0132953 -0.035753 
-0.0202345 0.014525 -0.0357753 -0.0211292 0.0159952 -0.0352519 -0.0192142 0.0173645 -0.0363342 
-0.0178127 0.017962 -0.0353794 -0.0205901 0.0192001 -0.0355712 -0.0232824 0.00156831 -0.0338723 
-0.0218841 0.000892296 -0.0347974 -0.0195445 0.000895789 -0.0350268 -0.0177123 0.000895422 -0.0351316 
-0.0206246 0.00187315 -0.0339824 -0.021725 0.00295795 -0.0348939 -0.0201128 0.00356982 -0.0342507 
-0.0233944 0.00478519 -0.0337954 -0.0218978 0.00474133 -0.0347903 -0.018696 0.0050766 -0.0350316 
-0.0212249 0.00638962 -0.03456 -0.022863 0.00703682 -0.0341583 -0.0198753 0.00738604 -0.0339169 
-0.0186056 0.00693892 -0.0351154 -0.0221211 0.0091439 -0.0346293 -0.0190639 0.00887284 -0.0347754 
-0.0216387 0.0108416 -0.0349525 -0.0185491 0.0105919 -0.0349098 -0.0212408 0.0122593 -0.0339237 
-0.0193831 0.0121193 -0.0344768 -0.0228211 0.0130759 -0.0341819 -0.0212255 0.0140232 -0.0343607 
-0.0194218 0.0138749 -0.0340976 -0.0227993 0.0148785 -0.0342016 -0.0190732 0.0154916 -0.0348005 
-0.0227164 0.0166765 -0.0342491 -0.0198292 0.0171169 -0.0346659 -0.0214953 0.0177425 -0.0350297 
-0.0226546 0.0191498 -0.0342992 -0.0189708 0.0192031 -0.0347919 -0.0246548 0.000899413 -0.0328892 
-0.0218168 0.000899811 -0.0330085 -0.0187348 0.000896112 -0.0334268 -0.0192097 0.00258942 -0.0330437 
-0.0177088 0.00228055 -0.0339873 -0.0244978 0.00345429 -0.0330047 -0.0226596 0.0031838 -0.0333785 
-0.0209736 0.00312563 -0.0327443 -0.0246693 0.00519664 -0.0326011 -0.0217854 0.00470543 -0.0330056 
-0.01986 0.00477439 -0.0329507 -0.0182818 0.00404133 -0.0336161 -0.0228662 0.00608972 -0.0326364 
-0.021076 0.00633454 -0.0327717 -0.0187347 0.00605621 -0.033513 -0.024387 0.00713762 -0.0330952 
-0.0235131 0.00862079 -0.0336246 -0.0215059 0.00795846 -0.0334256 -0.0181696 0.00788862 -0.0335392 
-0.0248229 0.00949109 -0.0327623 -0.0204428 0.00939925 -0.0337586 -0.018812 0.00995811 -0.0332574 
-0.0235693 0.0106931 -0.033678 -0.0218574 0.0103635 -0.0332427 -0.0226102 0.0119329 -0.0328092 
-0.0200059 0.011371 -0.0329691 -0.0242564 0.0134272 -0.0331593 -0.0204424 0.013332 -0.0327192 
-0.018182 0.0126917 -0.0332682 -0.0221171 0.0139871 -0.0328007 -0.0241086 0.0156988 -0.0332882 
-0.0223842 0.0157624 -0.032695 -0.0207262 0.0152716 -0.0331766 -0.01785 0.014913 -0.0336235 
-0.0211092 0.0170132 -0.0334081 -0.0192144 0.0162374 -0.0331773 -0.0241449 0.0174929 -0.0332632 
-0.0184219 0.0177627 -0.0337009 -0.0237593 0.019205 -0.032888 -0.0215815 0.0192038 -0.0328626 
-0.0200781 0.0185097 -0.0335588 -0.0260669 0.000900095 -0.0317796 -0.0225631 0.000898124 -0.0313806 
-0.0202681 0.00137731 -0.0322355 -0.018551 0.00139721 -0.0317131 -0.0257757 0.00266313 -0.0320119 
-0.0235456 0.00215757 -0.0321979 -0.0175846 0.00280093 -0.0322754 -0.022351 0.00338361 -0.0316218 
-0.0193509 0.00365421 -0.0316004 -0.0233087 0.00488909 -0.0313775 -0.0208658 0.00460998 -0.0314755 
-0.0258857 0.00633344 -0.0319311 -0.0193769 0.0060903 -0.0318325 -0.0241564 0.00647715 -0.0314448 
-0.0222938 0.00763294 -0.0318424 -0.0257446 0.00812209 -0.0320399 -0.0239732 0.00825833 -0.0317626 
-0.0195318 0.00847077 -0.0325267 -0.0231779 0.00985809 -0.0321393 -0.0211865 0.00914099 -0.0321028 
-0.0179383 0.00907704 -0.0319624 -0.0261653 0.0109296 -0.0316953 -0.0244523 0.0111797 -0.0321896 
-0.0215473 0.0110111 -0.0316014 -0.0197185 0.0101147 -0.0317198 -0.018391 0.0113036 -0.0321415 
-0.0255431 0.0126101 -0.0322058 -0.0236614 0.012725 -0.0315947 -0.0218615 0.0128314 -0.0314512 
-0.0186716 0.0131057 -0.03159 -0.0253687 0.01484 -0.0323449 -0.0235803 0.01451 -0.0318943 
-0.0191835 0.0145894 -0.0324637 -0.0265995 0.0157184 -0.0313354 -0.0206086 0.0160441 -0.0315603 
-0.0180187 0.0158689 -0.0318898 -0.0254058 0.0166355 -0.032313 -0.0225226 0.0176647 -0.0325073 
-0.0197666 0.0175397 -0.0320805 -0.0180355 0.0177268 -0.0316416 -0.0266226 0.0192045 -0.0313172 
-0.0253391 0.0185279 -0.0323677 -0.0226892 0.019167 -0.0314499 -0.0202496 0.0192097 -0.0316584 
-0.0186745 0.0191974 -0.0326458 -0.02434 0.000896667 -0.0311226 -0.0209263 0.00089884 -0.0306316 
-0.0272756 0.00219204 -0.0307517 -0.0250473 0.00220324 -0.0301147 -0.0231713 0.00231999 -0.0304326 
-0.0207231 0.00263791 -0.0310396 -0.0177338 0.0024684 -0.0305203 -0.027928 0.0039451 -0.030152 
-0.0261833 0.00356665 -0.0303803 -0.0243457 0.00343237 -0.0312171 -0.0268555 0.00506003 -0.0311211 
-0.0250757 0.0050471 -0.0308553 -0.0176996 0.00419722 -0.0311527 -0.0280441 0.00586559 -0.030049 
-0.0219263 0.00601208 -0.0311057 -0.0203086 0.00585713 -0.0303084 -0.0176151 0.0060889 -0.0314981 
-0.0262801 0.00649027 -0.030187 -0.0206034 0.00730138 -0.0313386 -0.0186665 0.00761894 -0.0312086 
-0.0274776 0.00778163 -0.0305643 -0.0256123 0.0081554 -0.0302492 -0.0216972 0.00873827 -0.0304247 
-0.0199041 0.00875601 -0.0305669 -0.0268212 0.0093518 -0.0311415 -0.0250626 0.0096953 -0.0309992 
-0.0233983 0.00932142 -0.0304424 -0.0184136 0.00998989 -0.030495 -0.0280339 0.0108704 -0.0300545 
-0.0232021 0.0111415 -0.0308753 -0.0271288 0.0122028 -0.0308758 -0.0252574 0.0120727 -0.0305199 
-0.0201913 0.0121701 -0.0313713 -0.0182159 0.0118143 -0.0304247 -0.0269422 0.0139798 -0.0310436 
-0.0249523 0.0137905 -0.0309581 -0.0217615 0.0146865 -0.0311805 -0.0197675 0.0148373 -0.0305324 
-0.0179652 0.0145386 -0.0306859 -0.0281325 0.0163265 -0.0299642 -0.0240823 0.0160988 -0.0312218 
-0.0223271 0.0164113 -0.0310242 -0.0270858 0.0174975 -0.0309143 -0.025293 0.017584 -0.0307957 
-0.0235009 0.017737 -0.0307198 -0.0214081 0.0179479 -0.0311248 -0.0198039 0.0179007 -0.0303218 
-0.0281524 0.0191955 -0.0299504 -0.0245221 0.0192028 -0.0309147 -0.0186562 0.0192032 -0.0308308 
-0.0281967 0.000900602 -0.0299046 -0.0262801 0.000897762 -0.0299996 -0.0244988 0.000896212 -0.0290139 
-0.0224922 0.00088676 -0.0295928 -0.0191775 0.000896121 -0.0301062 -0.0174418 0.000893106 -0.0296507 
-0.0289182 0.00268278 -0.0292093 -0.0271002 0.00218742 -0.0289666 -0.0215866 0.00242109 -0.0294871 
-0.0197942 0.00245816 -0.0294804 -0.0246261 0.00393591 -0.0295121 -0.0226776 0.00398336 -0.0299594 
-0.0207227 0.00395807 -0.0298183 -0.0293094 0.00440793 -0.0288169 -0.026666 0.00495197 -0.0293456 
-0.0190585 0.00459133 -0.0300486 -0.0236154 0.00581548 -0.0298688 -0.0217785 0.00542409 -0.029363 
-0.0174695 0.00541898 -0.0298428 -0.0285484 0.0073533 -0.029186 -0.0249386 0.00667558 -0.0290003 
-0.0238545 0.00761675 -0.0300847 -0.0221557 0.00714465 -0.0297297 -0.0187411 0.00667734 -0.029688 
-0.0271176 0.0083984 -0.0288853 -0.0205422 0.00778315 -0.0292018 -0.0182641 0.00841242 -0.0296439 
-0.0285697 0.00923012 -0.0295453 -0.026097 0.00972967 -0.0295345 -0.0245229 0.0089815 -0.0290847 
-0.0199315 0.0099499 -0.0292321 -0.0293285 0.010779 -0.0288012 -0.0245665 0.010701 -0.029593 
-0.021644 0.0105086 -0.029884 -0.0264881 0.0114754 -0.0293533 -0.0233037 0.0119064 -0.0291706 
-0.0215223 0.0121305 -0.0291294 -0.0198522 0.0116942 -0.0296731 -0.0283663 0.0128556 -0.0297473 
-0.0267964 0.0132003 -0.0289428 -0.0245436 0.0131984 -0.0293182 -0.0225669 0.0133874 -0.029892 
-0.0207834 0.013409 -0.0301436 -0.0190185 0.0133563 -0.0298459 -0.0278087 0.0145843 -0.0295974 
-0.0259273 0.0145892 -0.0296856 -0.0237159 0.0147596 -0.0300788 -0.0292573 0.0154484 -0.0288742 
-0.0213804 0.014885 -0.0293175 -0.0263605 0.0163324 -0.0296706 -0.0245744 0.0162738 -0.0295036 
-0.0227882 0.0161005 -0.0293181 -0.0208433 0.0165152 -0.0298438 -0.018522 0.0166015 -0.0303262 
-0.0291505 0.017431 -0.0289738 -0.0273879 0.0177508 -0.02916 -0.0254791 0.0177558 -0.0290204 
-0.0220735 0.0177662 -0.0294594 -0.0264037 0.0192046 -0.0295447 -0.0231196 0.0192032 -0.0297111 
-0.0209894 0.0192017 -0.0299051 -0.0193337 0.0192019 -0.0291689 -0.0297384 0.00131334 -0.0283704 
-0.0280069 0.000893472 -0.0281164 -0.0261094 0.000894856 -0.0282142 -0.0230843 0.000897734 -0.0279051 
-0.0205379 0.000900874 -0.0288749 -0.0188214 0.000990589 -0.028344 -0.0254704 0.00274194 -0.0284558 
-0.0301322 0.00307825 -0.0279373 -0.0276324 0.00379239 -0.0283715 -0.0232601 0.00282764 -0.0287138 
-0.0217893 0.00381323 -0.0283865 -0.0181964 0.00300676 -0.0288744 -0.0233216 0.0047388 -0.0284632 
-0.019711 0.00426042 -0.0283718 -0.0178708 0.00466224 -0.0282649 -0.0297326 0.00623471 -0.0283858 
-0.0280181 0.00554032 -0.0282877 -0.0199679 0.00602716 -0.0285514 -0.0175635 0.00642858 -0.0283599 
-0.0266657 0.00671296 -0.0284444 -0.0233025 0.00651742 -0.0282486 -0.0215461 0.00687172 -0.028024 
-0.0192273 0.00756665 -0.0279995 -0.029707 0.00845737 -0.0283775 -0.0257263 0.00869223 -0.0277861 
-0.0229665 0.00825035 -0.0285685 -0.0304452 0.0099054 -0.027619 -0.0230826 0.0100277 -0.0288303 
-0.0214645 0.00922404 -0.0286472 -0.0187436 0.0092961 -0.0280458 -0.0272779 0.0101306 -0.0282454 
-0.0255303 0.010467 -0.0279994 -0.0203919 0.0112006 -0.0280331 -0.0184024 0.0108283 -0.0289172 
-0.0278972 0.011884 -0.0283135 -0.0254525 0.0122572 -0.0280932 -0.0296343 0.0128998 -0.0284786 
-0.0207052 0.0135084 -0.0283169 -0.0183862 0.0125362 -0.0283847 -0.0304464 0.0142778 -0.0276171 
-0.0284374 0.0141381 -0.0279708 -0.0267986 0.0148369 -0.0281391 -0.0229263 0.0145181 -0.0284811 
-0.0181118 0.0145803 -0.028889 -0.0248006 0.0149345 -0.0283206 -0.0195612 0.015644 -0.0289309 
-0.027834 0.0163068 -0.0281834 -0.0260008 0.0164261 -0.0279181 -0.0210629 0.0161264 -0.028061 
-0.0179309 0.0163503 -0.0286482 -0.0236862 0.0176037 -0.0286777 -0.0197786 0.0175475 -0.0285629 
[...]
POINT_DATA 10000
FIELD FieldData 7
id 1 10000 int
3249 7184 3647 4138 404 2078 7353 9223 1516 
5345 1600 509 9120 5856 5901 160 7185 1421 
3489 8077 2163 5798 6841 3585 6528 8318 2888 
2929 4120 3560 3577 5853 9684 2750 3671 2074 
2411 6393 2974 4443 2734 4985 4747 7758 2945 
3538 4554 2659 2551 161 3318 5256 7859 3020 
885 4157 4243 839 7783 4558 1579 9821 930 
6687 26 5355 859 3194 8528 9801 3501 2255 
6288 3116 4537 3522 7197 681 9872 2434 2593 
1145 9686 3859 4152 2089 9 670 3429 7098 
2060 5191 4499 4618 3288 2891 130 1664 4180 
4530 4865 2140 1460 1614 1156 1024 2275 3659 
9650 2715 9962 3246 1502 7289 1301 8803 8822 
4667 71 3472 8976 3973 3177 729 3163 3107 
4996 8170 4226 348 4456 608 741 252 8923 
326 1675 431 3252 1362 8951 9533 1267 4911 
4022 9292 9754 7759 6103 1299 3223 977 6306 
8806 928 8790 266 8538 3344 1395 178 5473 
3570 1685 2015 8509 1841 3214 577 5846 8984 
2018 3035 7887 5148 7467 2562 5571 3632 4726 
3391 6019 4218 4126 2218 1814 9130 4458 2342 
9411 8085 5841 3840 6431 5972 5770 9589 474 
8378 710 1228 7953 4129 4508 2903 3958 2138 
7696 6382 394 2422 1929 1321 2689 2280 5026 
5606 6991 4571 3040 3110 2847 4099 4863 2801 
1398 1766 8763 4540 2439 554 9295 2068 3126 
1243 5799 2530 3649 6498 1106 2291 1150 1513 
7659 2182 4705 3079 499 3051 2393 7480 5245 
357 1272 5778 5876 7039 1192 234 6575 1997 
6154 6464 4369 5780 4621 3900 9642 6673 4706 
8975 610 4673 3147 5392 8357 3172 5132 32 
4606 502 9865 642 2971 3345 7435 3956 8045 
1318 3401 7484 9773 1419 1074 4389 2505 2748 
3003 3932 1217 4281 1557 527 7878 9810 601 
3436 1568 3855 5251 4036 7358 1704 871 8835 
9778 8777 2443 2481 455 6489 596 9543 1339 
4806 2662 6968 3218 1922 1520 9554 2668 4214 
4270 894 2402 6225 1259 3201 6773 4081 2531 
2887 4852 4718 593 9982 4056 2232 8629 2205 
5366 5508 6422 2133 4832 6315 9777 306 1177 
605 3113 3509 624 751 5992 7732 8223 9680 
4292 1813 8513 9704 3271 7695 4236 6547 476 
1293 1212 7652 8055 3258 6720 60 8157 5003 
9783 6300 3525 1879 7630 3984 8370 5589 1890 
5001 8710 8258 3983 5446 460 4798 4457 9924 
4337 6094 5930 9884 3916 1926 9501 7402 5349 
3738 3103 9224 6512 9794 1966 2978 8868 4677 
4966 4795 1101 2617 6561 6712 4146 1207 1960 
3248 2550 2318 2785 3475 6314 4368 8025 2770 
3975 2413 4053 4593 934 989 8134 4619 3641 
8241 6822 8182 2630 1996 371 1006 6135 4092 
8613 2861 9630 3069 5214 7931 3417 2514 1601 
1069 6277 7198 6733 522 5977 8335 3549 3492 
3084 7689 1935 381 1876 8721 7705 9499 5651 
466 6705 1374 5744 6274 3300 4400 2574 2349 
2351 5269 3959 4084 5133 3303 3013 1680 4569 
8322 9079 1070 176 4799 2674 1415 4506 2548 
8041 3653 2389 5971 570 1256 4634 4907 3394 
2388 4186 7787 2476 9177 2225 5365 6837 6988 
2460 2230 9139 4684 4823 8994 3389 2397 8793 
4635 6469 4749 811 745 1377 2794 4171 5677 
4304 7751 7497 6090 4049 3689 9201 1738 7002 
2686 9471 4760 4004 4406 1366 9333 3857 8683 
4256 2849 7739 5568 4836 2915 6851 5766 4792 
5746 3772 6229 7067 817 8242 6262 4234 867 
6855 7521 370 4722 2687 3075 2187 7384 6555 
1645 1774 7558 3847 1980 9745 8496 7731 9613 
5562 4063 1214 3725 9536 8696 8039 7864 2006 
6599 1580 8901 5549 6691 5563 8816 9323 4624 
9353 1016 9330 7554 4370 2051 3870 6560 5607 
9275 9797 2677 646 697 5421 9126 5407 6416 
8487 4305 1154 8759 1727 2221 1468 9240 6041 
1034 8880 5033 5909 9651 461 6782 162 7852 
1442 2467 6425 1981 257 5989 8838 1918 8895 
913 4596 1607 2666 4989 3533 2763 1613 1689 
6927 5097 2819 244 7545 9803 4880 3895 1360 
1394 6032 9504 7190 1140 3823 7762 3669 4712 
487 2751 5166 5572 8798 3654 8145 7113 1323 
1589 9213 9451 4965 1490 4164 283 6630 6073 
9313 4716 5970 7825 6145 7077 248 4114 955 
9208 6888 6082 3629 4844 5583 3437 583 458 
1931 6178 4735 4522 665 8920 5321 8251 7750 
7601 5951 5686 5816 9129 1107 2322 8200 5541 
2081 5777 1473 8883 1933 349 4127 8469 7204 
5236 6582 2302 562 2948 7790 4656 6592 3152 
1146 759 9877 34 4991 7634 594 8152 7244 
3055 4229 4817 6812 117 9971 7128 9162 6447 
2696 8981 6120 4216 4482 1206 1277 5513 4034 
5229 2541 9047 8431 139 8601 6257 7510 8122 
5396 9423 2749 2616 4421 8317 1809 4423 4009 
4528 8494 2380 7780 3170 327 4929 9141 4262 
5223 7177 4847 5153 9008 5152 1635 2922 5855 
4955 1602 8340 7202 7381 3290 6284 2334 5192 
1776 6534 8097 9658 2509 4208 4652 6405 5466 
3486 4767 7034 8578 959 2124 3452 105 1175 
9712 2996 2450 9440 9048 820 4845 74 3393 
7385 7094 7987 2772 1139 184 5057 5018 517 
4315 200 5750 9507 5979 9709 7328 8164 684 
5809 1015 1275 1968 2013 1082 3173 1294 5866 
1647 5570 8095 5872 3810 671 2222 8427 123 
6585 3865 654 3478 4822 5767 3599 8795 483 
691 5264 5390 3853 1430 5706 1466 9242 7640 
3781 5284 8281 3199 3032 9315 9289 4623 9756 
2366 3435 5830 4713 7199 4696 9214 7831 5614 
1748 9959 2827 1969 3060 9400 164 778 7623 
2899 2699 6531 2758 3543 2203 4515 6514 5739 
7073 7837 1311 2931 3294 5470 5246 4851 6860 
1344 5257 3365 2123 6009 22 309 2691 7557 
4076 6155 9902 2969 3948 2864 1569 2010 5361 
1945 7230 5550 6726 6138 9622 5885 3007 5879 
7678 17 2044 4116 1472 8512 1532 2590 3563 
7008 7326 6124 3705 6355 8163 4922 1882 3802 
5984 8345 5178 439 7125 2594 2309 1857 2399 
7599 6540 9974 4919 1658 5671 4364 2170 4095 
7838 2484 4625 4276 1306 5389 7135 3792 3335 
1061 5658 8492 7012 7756 3639 321 5672 4445 
137 5546 9298 3625 3592 9176 835 7637 8349 
9619 7411 4082 1944 6907 3929 5328 5307 445 
3306 9883 1122 3133 6144 933 6652 8353 1708 
3580 650 8056 1707 8253 8761 7572 6122 816 
1113 3702 6628 3749 2778 4805 2761 5498 7273 
7812 6993 7588 6370 1073 8490 2338 4553 951 
5322 1985 7828 9086 7237 9017 5617 4046 4481 
7676 3257 7552 5182 7973 8406 52 6175 9646 
3838 3693 7660 7528 3232 8530 6305 991 5454 
8821 87 5482 9164 9215 7394 3915 6038 2178 
3366 3444 714 9404 8520 6316 7997 5608 8939 
4242 4072 5080 7693 815 5400 8833 216 4251 
973 6317 3904 6276 4816 7446 1982 1102 9032 
5661 9450 5801 829 9420 3914 1335 1994 4 
6379 6069 1181 7675 3930 761 4455 6868 1242 
8622 9581 1204 8310 7507 7832 8123 7181 134 
2559 4774 8405 3552 3313 6486 5296 7839 211 
6203 7618 3157 300 3553 2853 3433 5795 8112 
7980 6303 2332 9675 4564 4764 7389 2720 5845 
7970 6095 7105 1948 3132 7796 5907 6816 625 
6012 655 5927 7254 699 3519 3944 970 8395 
9485 7082 7248 6323 291 880 9555 1793 316 
3795 2096 5453 8290 9728 1269 1983 1478 8529 
7096 9790 3573 2009 3536 9455 732 7020 9688 
1420 1531 4900 2958 9363 3530 8382 8464 3723 
6539 8449 3127 7642 2335 6097 1734 7807 8438 
6567 2139 1334 1671 4167 7699 8552 7434 241 
3994 9135 6835 7698 6107 6701 5242 8365 3233 
9916 6747 4396 1701 7716 7715 7649 187 2719 
6169 7207 8414 5757 978 9719 668 9864 2459 
5968 7325 7720 451 8598 8183 7031 3789 6472 
7876 8787 9502 7710 3070 2113 1196 4474 6869 
2216 1030 6260 9239 1314 3012 4199 9373 1562 
3600 8619 8151 9840 7883 6079 157 4826 7806 
6919 1153 1678 2998 3982 1954 2136 2556 3767 
2600 5216 4561 2383 6344 5858 2721 6785 8343 
9788 2710 3612 9387 4029 1134 3817 8229 3885 
1572 1501 7188 387 5156 1162 6775 5142 592 
3677 2670 4380 108 7035 7157 1456 765 1953 
6984 5749 904 3481 6216 5424 4975 8190 484 
490 6791 467 9114 2111 7513 9772 1762 849 
6190 6176 5822 236 8005 7740 2323 4228 8897 
1869 6627 1117 1124 1457 2832 4709 2367 5665 
5160 1605 4250 5147 6268 2960 643 1288 2193 
8916 3179 6471 8561 662 4748 2889 9469 5458 
4151 2058 4578 4033 424 5168 9278 4224 8485 
7203 5943 886 8617 1230 106 3729 635 2824 
2902 6641 712 6796 4740 4645 5136 8216 2963 
95 369 1391 414 8989 3082 9661 3517 4231 
6963 8224 5784 3514 4409 7372 1100 5310 5560 
9034 4892 5099 9970 1976 7638 2157 8029 6338 
3442 9449 2224 2344 7423 838 3891 5539 9403 
2285 1546 1225 6529 5707 4524 6732 8082 9980 
4340 6889 5871 4882 3062 3766 2642 6441 8332 
3660 3363 9178 7602 193 3462 5480 4021 9263 
9335 661 341 987 1759 5115 235 6563 9083 
7441 9685 2436 4825 1497 771 7620 8167 6374 
1915 597 690 952 7475 9022 6871 652 7415 
8087 2233 2640 5693 6551 36 4354 6723 3609 
1537 3658 1019 9149 4491 101 2444 5297 4819 
7647 1797 9028 168 5891 3114 9663 1014 6781 
7799 2661 1831 8921 2132 438 388 5840 6654 
2641 7526 9285 1338 4700 7941 9203 2576 1930 
102 4926 9094 9297 6980 609 5559 7452 2353 
4810 8871 8027 4988 6356 7845 2613 3431 9817 
1957 1509 9488 3151 8181 8570 549 9895 9232 
1252 1049 2220 8234 2752 3875 9290 3503 4856 
5779 8719 7907 8250 6179 2798 437 6332 6197 
3347 6060 6231 1104 8845 3479 513 7285 3175 
1485 5083 4595 5503 9359 7544 8605 6533 9743 
7815 2762 7206 7068 5280 4395 4210 79 4286 
1593 7927 9304 9978 3074 4113 5815 4112 8754 
3356 9548 9859 4206 2288 2035 5501 239 262 
4118 1257 4855 7262 6259 1597 4802 4111 4503 
3015 3800 3017 5430 6834 1292 700 1369 4588 
7456 9131 8230 3759 8121 1573 1840 6833 1988 
6702 1426 6634 5602 8142 2547 9209 3508 534 
44 9321 674 1984 2511 1164 4602 2310 3135 
1131 3279 7064 2938 3939 2257 5402 6166 7267 
6820 5819 2066 4068 2152 2423 6526 6174 9170 
3420 4664 6576 5394 3807 9698 9750 5413 8974 
3686 3918 3761 5543 3878 6468 3967 7822 3235 
5416 2355 4140 8135 9584 979 3554 2452 1376 
3369 2239 8125 7522 4087 2826 423 5426 3532 
6360 9701 382 1716 7960 6806 2169 1955 2510 
2371 6173 7107 1690 5351 846 360 8725 4343 
5849 3078 3782 4692 2959 2537 6419 5904 3010 
4446 9997 3185 6273 8852 6650 3754 5575 9072 
6908 7781 721 1404 1555 3667 336 2019 3402 
9944 8723 2604 9042 7879 7944 1480 5333 6460 
4272 7337 5920 4659 6239 4643 7654 6605 2508 
1565 9621 7268 2077 8936 3618 7493 1091 4691 
2678 1365 7886 7277 329 9157 9578 2735 1195 
1825 1161 7560 8394 4871 9195 1249 3155 6072 
6096 4859 213 3102 2747 62 5597 3188 1616 
6995 8536 361 1231 5929 9318 667 3866 3507 
1914 4449 5334 1959 4348 8186 6357 2075 4203 
2065 50 5620 2966 997 3370 9510 4133 1932 
2457 3681 822 6778 8204 4995 5184 129 878 
335 441 1974 5889 7210 3178 5435 3863 9377 
1574 877 9689 1709 4964 2793 5506 7547 8114 
8849 2655 6731 4051 333 8621 9006 8899 4972 
7443 4414 9954 8804 9000 8409 8028 7655 175 
2003 6240 798 2961 284 8169 4012 9977 1341 
180 2083 6792 8927 9283 8718 2717 2917 7431 
237 8336 456 2939 5647 3704 351 7850 2601 
4158 7216 3190 4576 4778 606 722 4897 3742 
561 2202 6553 982 9627 8829 3978 8521 6391 
4096 5995 8180 9673 8583 2088 3146 701 4057 
8338 7112 4574 4420 4064 2473 7752 2754 8446 
9830 9171 3171 677 841 3613 4717 2206 827 
6934 557 4475 6047 4347 748 7583 8100 7087 
3941 2940 6970 5908 5917 5880 8064 4073 2521 
7398 8514 3359 5108 2112 2141 1067 8866 2596 
7072 7222 7375 8660 4947 3329 1373 9397 9319 
5158 8239 6798 1578 5821 4431 5912 3706 7324 
6819 1333 9382 3905 9484 8231 9702 5067 68 
3997 2377 7574 9112 7540 1796 21 2928 2171 
4772 238 2099 5960 4891 4220 5180 1089 8252 
3292 5931 8245 2946 573 1549 7146 417 3447 
6358 7319 2237 9703 2980 4824 1180 380 5479 
5308 1760 5348 6256 4739 3421 5720 2814 82 
7619 4967 4866 3825 4419 2416 5935 9538 7252 
9011 8534 9125 4453 4628 1558 6309 9204 206 
4433 9726 828 9115 7071 3269 5249 1484 3909 
6438 7609 6250 8680 473 189 2575 4015 5633 
8684 7830 5354 4962 7746 1158 647 4283 3755 
8297 9270 9037 3122 7282 726 5286 6890 6502 
7169 4014 1559 8368 6745 7186 4763 2624 1681 
7479 8138 9317 7091 9629 7151 1844 623 6647 
7856 6503 4309 1971 5127 2358 3460 7553 7571 
6485 5775 3305 9426 8773 1009 6233 717 3954 
4397 3655 269 5443 3906 8274 8781 2934 1095 
1702 9483 5089 1855 6945 5495 9644 7172 2048 
3919 6455 6517 3093 5725 7994 6544 7722 8581 
7511 1241 1919 197 4725 8499 7053 9173 4052 
6206 8360 9307 8568 7482 5768 9966 3439 3098 
6244 7335 3208 3091 250 4317 7938 8639 1586 
7922 9758 9460 3309 2485 9466 5352 6838 1881 
7743 7309 1732 7717 7697 2403 5047 1370 7615 
4912 2020 7488 5536 9903 2267 3680 2164 5218 
6100 8903 1187 4781 330 1697 3602 4497 7650 
9392 190 9816 1595 3238 1474 3456 5875 5509 
6418 961 1571 4616 5627 5708 851 8110 1519 
2658 4903 8308 1110 6400 3322 9662 9110 8351 
136 5240 6900 4878 9185 9442 2235 5450 7182 
7885 3692 4701 11 6039 4742 1588 5483 5163 
1865 6440 9886 8947 9711 6829 5369 5500 5953 
1483 2799 8735 4436 6692 5652 3274 5800 1012 
2802 8819 7404 5684 915 2251 5290 7406 1515 
3206 9448 3117 1819 1287 4720 3043 3574 5555 
8844 7491 8404 9871 7669 2869 2186 5654 8104 
6625 5235 8385 2987 9371 1512 6362 2447 1852 
9875 2656 8662 1386 1279 9705 3728 3134 6836 
5586 4355 3097 9906 5763 6992 942 4091 7515 
8474 4769 8932 7332 7045 5064 9491 7718 5063 
8255 7421 3016 5485 8757 7264 3096 5401 344 
5861 3320 3892 8248 2477 8391 905 7417 1866 
3684 9325 7014 2924 75 6852 9853 2188 9414 
6059 9365 5398 8808 2370 8016 2529 3422 6518 
8928 6299 9782 6683 8587 3698 8086 6591 9256 
9947 4357 6398 6313 6442 3550 9984 2866 4655 
6481 3568 2356 9671 3694 1949 2897 482 5966 
5164 6201 2258 2622 6446 5631 5794 9071 8060 
8105 2871 4493 2910 2523 946 7704 4011 8437 
9046 4422 7736 9692 6497 7990 4746 8040 7322 
7362 8300 9594 7063 4600 7714 2207 7556 8799 
4818 7866 1035 2340 2812 491 9194 2728 4175 
4045 4969 5695 7214 4176 3557 9431 5825 1322 
485 6759 3894 995 4219 6813 1179 3727 1253 
6167 5745 9949 6818 3515 1017 3535 7140 7436 
5161 5997 4590 7668 8706 2729 7782 9620 9936 
9546 7024 9002 2695 345 3842 6342 6448 8646 
2502 4534 2266 4565 8674 7304 8850 3054 8612 
7038 3196 9833 924 7450 3286 6286 3251 8238 
9023 3675 8642 8825 7408 3123 1266 529 3620 
4326 6595 5925 9352 5655 4647 3937 8990 1142 
1492 1144 6368 6714 2825 2359 8801 5012 2709 
7290 2195 8733 658 4517 5497 4944 1496 8471 
5986 7624 4273 4383 4062 7905 5358 279 9014 
6916 7596 5494 1803 2419 3101 3760 8260 5146 
2097 2281 6679 3225 4934 8070 2592 4416 8556 
8293 6227 2526 5075 1838 1353 7666 3868 4070 
4599 2835 5419 100 9648 1255 3283 5195 8657 
3633 4030 566 9062 9003 7904 7274 4853 8742 
2614 7343 256 7605 8533 9496 2698 6263 1990 
5411 1967 2507 6365 2927 9432 3539 7365 8627 
359 9293 1087 5978 6462 8863 4640 7118 1221 
2565 5073 2845 6966 1710 4016 220 731 6058 
1687 9746 4514 6787 542 1008 9065 685 9320 
8284 9001 8987 3912 9923 7455 1764 3741 5528 
6414 7867 5309 1329 6035 920 3071 6817 5533 
9852 7958 2002 5882 8015 7483 224 1829 7737 
595 4987 7921 832 7426 9608 1037 6757 5370 
353 8128 19 2372 5877 3094 8522 3748 6296 
6386 1126 2724 1003 1393 5987 9246 8783 6253 
1029 1359 2134 2283 8908 7093 5010 6985 3441 
4088 2546 293 1215 4221 7765 9639 774 5230 
1615 2478 4440 4932 4994 1714 6587 430 511 
8661 6685 6022 4783 9218 1083 8495 8550 1026 
4190 639 25 1315 9196 8518 9520 2055 4935 
7414 7255 8311 9753 565 6141 2328 3092 208 
222 7719 8410 4271 4023 7158 5011 203 1943 
3469 1911 875 5274 504 7661 6161 8149 1612 
7930 8967 5129 4169 7228 7030 821 3432 818 
261 6928 8564 8942 889 3197 7814 2577 2517 
5124 1811 7656 3377 442 5122 2348 1076 8429 
5461 7999 3566 2240 9522 2489 1388 2333 8616 
6519 9600 7092 4752 2737 363 9402 8765 1754 
971 4887 3404 3111 8246 3746 2626 758 377 
1777 4632 598 6280 290 1878 3009 2130 3455 
9571 6727 7709 2488 3597 4927 510 8946 7512 
3011 301 2700 1411 2 3787 24 3149 8910 
7050 7021 2039 907 3219 3210 2311 3774 5899 
8162 4639 4916 4007 1258 4143 9276 8178 7465 
7320 800 9693 4232 2538 8397 6011 5911 1004 
2304 830 3666 3584 8468 385 4770 8667 5050 
9948 7236 2008 1946 6783 7546 9579 4940 2426 
4527 7376 8211 4026 6886 6655 854 2142 9659 
823 1536 6876 5468 83 4730 1270 7801 7672 
3376 2108 5139 4376 4253 320 9987 7310 9415 
9561 5662 3750 591 8539 3014 9229 6793 1427 
4840 6682 7805 7501 5053 2790 9179 9446 7784 
8268 9694 508 2603 1152 9137 4071 6053 5241 
9894 3908 1112 3862 1273 5756 2768 4744 8420 
4213 9544 9656 860 9358 2144 582 3864 1413 
8 5046 6071 5957 5537 9985 5769 8074 1063 
9405 1506 4990 3253 2210 350 2264 1086 917 
3100 1147 5162 225 3528 210 4592 9332 7777 
2192 9444 9225 8342 1654 406 471 2911 4145 
1467 77 7811 9789 3136 2797 5829 4507 5055 
5474 8277 477 2527 3848 4148 4786 9602 2828 
4594 1920 7943 8786 7359 604 2347 4613 4154 
112 5272 3360 2270 9572 6078 1763 548 3326 
104 9575 6660 1109 3951 3511 7189 9243 4622 
85 8298 5350 7985 3521 1581 528 8671 574 
457 4163 5477 2253 9458 6437 303 2449 7516 
4247 3595 2263 4399 2821 7460 1088 8673 1379 
2791 3922 3793 6604 3564 9645 4604 4979 6067 
5532 7579 2433 1861 1541 7339 1280 6163 5883 
6255 6784 8769 2886 6686 8873 3473 4365 8329 
4703 2822 3351 3354 6760 6501 3077 7156 9265 
898 4535 680 3336 2877 6319 1758 6749 1907 
1712 2214 2882 2256 3384 3449 2387 9915 9198 
2878 8486 6943 5243 6395 2105 4999 9132 2369 
7986 9069 801 1816 1660 2442 1818 2376 676 
2733 6411 8881 7508 6504 3942 146 3395 9148 
5610 6827 9163 780 8846 6577 9005 8004 7996 
4404 840 93 276 6289 260 6459 6101 3757 
7044 1786 4439 6681 1240 297 2135 3644 3465 
372 2923 8026 1543 1570 782 6117 825 7272 
8364 2951 9549 918 2004 3064 2981 6505 9846 
5196 272 4607 3086 4115 9316 6088 632 2944 
8655 9435 7233 9389 1118 2875 3635 3241 1905 
5776 2084 4704 8099 8772 9920 2706 2942 3052 
2994 4518 6955 9150 3411 1245 1850 5636 7462 
3165 425 6474 6129 1769 2287 750 615 9511 
9556 4736 9582 3295 1406 9747 5434 3 641 
5640 539 538 9410 1550 6680 6470 1332 4815 
9732 9729 1587 3224 9088 5072 6068 7331 1567 
5922 2156 7111 9521 3338 389 7445 1637 3797 
2190 7888 3650 9085 3963 9882 2176 9529 9825 
8824 3887 1011 288 1465 6495 6235 622 921 
7498 9118 1611 9056 7470 2820 8830 8203 1418 
4538 4914 4928 98 6430 9459 9376 2701 9116 
2365 4356 2557 2525 8687 9567 4265 7626 5963 
6578 3081 1368 1820 7628 8352 8779 4298 6977 
4854 559 1787 9736 9282 8756 20 2429 9957 
6046 3180 4478 788 1978 8158 1384 6449 6010 
4197 9259 9210 9757 9638 8685 868 107 9873 
4459 4505 5439 4583 2983 9888 5428 5519 481 
1039 9654 501 9751 1040 5025 3467 2555 634 
1283 689 5983 5429 9834 9931 8270 5359 7855 
1387 1200 2049 3561 9780 9921 8869 8960 7485 
6911 9855 4539 1092 2228 4117 704 8421 5420 
3836 3588 5052 9911 611 1895 9248 5051 2652 
1263 6385 1782 4123 7816 6872 9908 7873 7133 
5034 3743 3610 2398 9144 212 9245 6279 3896 
6142 9604 3966 3808 4442 4615 6748 8810 198 
2681 296 5209 6023 4690 2005 1165 9767 6031 
3735 5021 5255 733 6999 4775 6265 6554 5440 
4310 8788 2289 9863 5730 9539 9156 7051 8348 
2977 5181 4450 5814 9220 4378 6024 5346 4513 
3415 7180 9851 5765 4582 9842 6116 7058 1052 
3762 7897 2680 6013 5613 1159 6549 9798 6873 
9765 4336 3529 1665 7495 5212 7449 9348 3771 
8106 4110 9406 4398 8412 1783 6998 444 3049 
2054 5903 6903 8776 5774 3917 493 5131 9716 
4945 7084 426 6699 1499 2022 9952 7534 2023 
4573 7600 7776 8797 9233 831 7573 8433 5791 
578 4715 480 9724 2892 9384 3540 8566 862 
6172 5579 8228 8424 9832 2213 716 2520 5102 
6484 4846 4789 3001 9534 3053 927 8577 6899 
9479 7979 4921 7632 3204 9913 9857 3998 7291 
6367 707 6003 9545 9234 9364 4567 5786 9795 
6409 9652 1698 6975 1917 2299 8400 9838 7440 
7691 6936 2122 7586 7894 5096 1410 3687 287 
9550 6762 9844 2912 992 3940 5393 3765 6450 
5969 9998 4165 1319 7734 8771 8952 4917 3339 
7795 7535 4078 1138 3768 1464 6207 4714 8006 
6077 6958 8219 8195 9774 2722 738 4297 1527 
310 464 6511 1875 9933 9557 4723 7835 666 
2569 8713 6465 9677 688 2241 5103 3176 4054 
2638 9593 2226 9500 5283 2718 1636 1757 9199 
9914 8292 6283 1870 6746 9850 6210 9326 8931 
999 7568 9345 5193 3637 3080 7444 9968 9036 
9281 3943 9626 6637 6719 2363 1713 8758 7590 
9124 7132 9551 1367 5406 8493 4371 8043 5069 
8965 4209 3719 9564 5471 7149 6552 7283 7566 
2756 5408 9439 7770 9524 5764 8828 9553 4080 
7439 6906 7950 126 1853 7379 9591 7808 4261 
6602 186 7584 7683 8092 4807 8444 8582 3160 
1226 9628 6536 7278 9898 3413 7477 2441 8287 
9981 2898 8857 7974 7937 5836 7005 2215 3021 
8215 7386 7052 6034 6403 7934 8034 5638 8207 
9607 5955 9862 9261 2269 5666 7391 858 6479 
2474 7336 2571 8093 5423 9967 4668 5928 9367 
7747 7022 7171 8579 7388 7707 3200 5387 8484 
8867 9590 8877 9697 8445 9759 7576 9945 9805 
1585 5123 546 6866 9696 8632 8372 7702 8745 
5327 7119 6048 9941 8812 8373 5301 1899 5577 
9667 5275 8986 5427 398 3186 3039 5850 5906 
9827 4141 8637 3480 541 9084 5087 5729 6051 
9804 6287 7505 65 7266 2567 7587 9610 6193 
1441 8184 6618 4521 8359 7827 6667 4207 7371 
4951 1417 6162 8377 6828 5383 6559 4043 9098 
30 7117 6150 3809 8590 8711 7967 9927 7170 