# vtk DataFile Version 4.2
Generated by LIGGGHTS
ASCII
DATASET POLYDATA
POINTS 10000 float
-0.0172572 0.0052284 -0.0373017 -0.0172639 0.00702867 -0.0372833 -0.0164141 0.00976815 -0.0376833 
-0.0171389 0.01138 -0.037351 -0.0160228 0.0127288 -0.0378514 -0.0165056 0.0145235 -0.0376076 
-0.0162738 0.016304 -0.0377473 -0.016323 0.0191415 -0.037715 -0.0175027 0.00089619 -0.0371912 
-0.0188129 0.00197207 -0.0365504 -0.0170874 0.0024067 -0.0363185 -0.0181956 0.0037422 -0.0368484 
-0.0161049 0.00396124 -0.0367643 -0.0195744 0.00503685 -0.0361424 -0.0188443 0.00665713 -0.0365115 
-0.0193215 0.00837383 -0.0362811 -0.0177473 0.00874629 -0.0370564 -0.016178 0.00818117 -0.0363602 
-0.0191705 0.0101616 -0.0363556 -0.0187323 0.0118929 -0.0365784 -0.0176314 0.0132056 -0.0371301 
-0.0161874 0.0133041 -0.0360641 -0.0194271 0.0145877 -0.0362188 -0.017638 0.0146313 -0.0360265 
-0.0179288 0.0161261 -0.0369872 -0.0188041 0.0176383 -0.0365495 -0.0170427 0.0176968 -0.036911 
-0.019584 0.0192011 -0.0361166 -0.0177863 0.019203 -0.0362737 -0.0205091 0.000903738 -0.0356185 
-0.0187873 0.000898312 -0.0351157 -0.0169983 0.000905066 -0.0352782 -0.0207575 0.00361199 -0.0354741 
-0.0187853 0.00375048 -0.0351491 -0.016808 0.00372047 -0.0351306 -0.0214059 0.00524058 -0.0350865 
-0.018016 0.00549752 -0.0353778 -0.0162195 0.00540221 -0.0353762 -0.0210924 0.00700337 -0.0350194 
-0.0209247 0.00875237 -0.0353777 -0.0177977 0.00777006 -0.0355394 -0.0206383 0.0108331 -0.0353907 
-0.0175084 0.0101209 -0.0356696 -0.0171799 0.011976 -0.0353158 -0.0202059 0.0126052 -0.0357879 
-0.0186081 0.0132774 -0.0352971 -0.0210119 0.0141485 -0.0353193 -0.0161375 0.0147605 -0.0350105 
-0.0208686 0.0159408 -0.0354185 -0.0190497 0.0162183 -0.0354745 -0.0167772 0.0163963 -0.0356366 
-0.0203817 0.0176469 -0.0356798 -0.0179414 0.0175821 -0.0349667 -0.0211545 0.019203 -0.0352409 
-0.0160204 0.0191877 -0.035934 -0.0220473 0.000906697 -0.0346937 -0.0205105 0.000946197 -0.0337652 
-0.0162672 0.000907618 -0.0336329 -0.023127 0.00230291 -0.0339555 -0.0213322 0.00256497 -0.0336323 
-0.0197992 0.00231837 -0.034683 -0.0178313 0.00234078 -0.034575 -0.0162643 0.00274082 -0.0336834 
-0.0223474 0.00383426 -0.0344888 -0.0200846 0.00390086 -0.0338287 -0.0163858 0.00456911 -0.0336087 
-0.0226043 0.00633495 -0.0343082 -0.0197588 0.00578034 -0.0345094 -0.0194226 0.00757634 -0.0346789 
-0.0181029 0.00659674 -0.0339575 -0.0163268 0.00708389 -0.0347474 -0.0223914 0.00811799 -0.034466 
-0.0206857 0.00832233 -0.0336366 -0.0181192 0.00858842 -0.0339627 -0.0220987 0.00988541 -0.0346136 
-0.0194604 0.00953964 -0.0346954 -0.0165007 0.00889635 -0.0347336 -0.0201977 0.010769 -0.0336087 
-0.0180931 0.0103582 -0.0336449 -0.0221662 0.011684 -0.0346211 -0.0207148 0.01246 -0.0339223 
-0.0190889 0.0116298 -0.0347376 -0.0166298 0.0114995 -0.0336028 -0.0224234 0.013454 -0.034445 
-0.0177333 0.0129011 -0.0337711 -0.0160871 0.0135936 -0.0336508 -0.0234381 0.0147913 -0.0337506 
-0.0181165 0.0147302 -0.0343004 -0.0218411 0.0156815 -0.0339151 -0.0198496 0.0151956 -0.0341505 
-0.0168599 0.0159456 -0.0338745 -0.0185899 0.0163661 -0.0336494 -0.0235381 0.0177383 -0.0336916 
-0.0220147 0.0174082 -0.0347068 -0.0199281 0.0176317 -0.0339438 -0.0161064 0.0178311 -0.0347564 
-0.0226749 0.0192019 -0.0342814 -0.0191003 0.0191847 -0.034372 -0.0172798 0.0191959 -0.0345325 
-0.0240533 0.00090565 -0.0333118 -0.0222078 0.000896492 -0.0328978 -0.0180593 0.000895159 -0.033478 
-0.025112 0.00221653 -0.0325326 -0.0196514 0.00236584 -0.0328467 -0.0177462 0.00247503 -0.0326806 
-0.0238886 0.00387991 -0.0334363 -0.0223957 0.0036344 -0.0324697 -0.0251856 0.00468632 -0.0324838 
-0.0217729 0.00508563 -0.0333208 -0.0193012 0.00520595 -0.0328633 -0.0180978 0.00403489 -0.0335045 
-0.0239931 0.00569976 -0.0333668 -0.0166766 0.00620578 -0.0329363 -0.0237796 0.00748616 -0.0335158 
-0.0207455 0.00657102 -0.0332328 -0.0225284 0.00834262 -0.0325233 -0.0166135 0.00798034 -0.0331904 
-0.0237033 0.00929714 -0.0335804 -0.0213862 0.00972486 -0.0327614 -0.0194254 0.00933452 -0.0328454 
-0.016456 0.00977295 -0.0331482 -0.0247211 0.010618 -0.0328393 -0.0229626 0.0105457 -0.0325272 
-0.0236591 0.011867 -0.0335816 -0.0215149 0.0116008 -0.0325672 -0.0189769 0.0119039 -0.0329378 
-0.024423 0.0134155 -0.03306 -0.0226831 0.013227 -0.0326789 -0.0193731 0.0135801 -0.0335447 
-0.0210831 0.0141358 -0.0333889 -0.0175848 0.0143917 -0.0325952 -0.0248896 0.0160094 -0.0327061 
-0.0192786 0.0149605 -0.0324046 -0.0231069 0.0162556 -0.0327564 -0.0205016 0.0162101 -0.0328209 
-0.0252298 0.0177558 -0.0324461 -0.0215429 0.0176643 -0.0329904 -0.0183987 0.0180594 -0.033103 
-0.0165879 0.0175163 -0.0330465 -0.0243818 0.0192041 -0.0330817 -0.0226972 0.0189516 -0.0325012 
-0.0207305 0.0192029 -0.0334747 -0.0170831 0.0192092 -0.0327145 -0.0261461 0.000898661 -0.0316964 
-0.0243752 0.000898275 -0.0313866 -0.0206307 0.000897025 -0.0319713 -0.018822 0.00115589 -0.0317155 
-0.0170656 0.00089811 -0.0319841 -0.0233036 0.00211083 -0.0321632 -0.0262441 0.00349303 -0.0316329 
-0.0242778 0.00347647 -0.0315166 -0.0206416 0.0036972 -0.0320771 -0.0188513 0.00367573 -0.0319142 
-0.0164617 0.00358936 -0.032104 -0.0267226 0.00517692 -0.0312262 -0.0233703 0.00500103 -0.0318323 
-0.0176234 0.00498389 -0.0320009 -0.0256956 0.00638358 -0.0320752 -0.0212383 0.00529439 -0.0315019 
-0.0160081 0.00551708 -0.0314194 -0.0267156 0.0076318 -0.0312333 -0.024326 0.00752496 -0.0318028 
-0.0225126 0.00652344 -0.0323443 -0.0183918 0.0065992 -0.0321787 -0.0169393 0.00742288 -0.0315128 
-0.0255922 0.00879729 -0.0321247 -0.0198183 0.00769674 -0.0321797 -0.0238656 0.00928277 -0.0315992 
-0.0205238 0.00910746 -0.031314 -0.0177852 0.00893611 -0.0322244 -0.0261282 0.0106911 -0.0317293 
-0.0201016 0.0108535 -0.0317595 -0.0172101 0.010546 -0.0316572 -0.0183891 0.011835 -0.031239 
-0.0256549 0.0125115 -0.0321136 -0.0240025 0.0127219 -0.0314441 -0.0212296 0.0133805 -0.0316433 
-0.0194508 0.0131988 -0.0317867 -0.0169298 0.0124636 -0.0321077 -0.0256793 0.0144503 -0.0320882 
-0.0239001 0.0146985 -0.0319039 -0.0221177 0.0148915 -0.0321288 -0.0206061 0.0153296 -0.0312553 
-0.0179253 0.0160525 -0.0319532 -0.0262524 0.016478 -0.0316232 -0.0218128 0.016644 -0.0315228 
-0.0237487 0.0173869 -0.0315051 -0.0195413 0.0174002 -0.0318779 -0.0174494 0.0177203 -0.0314717 
-0.0264641 0.0185935 -0.0314496 -0.0240236 0.0191813 -0.0313114 -0.0211431 0.0191974 -0.0316253 
-0.0194444 0.0192048 -0.032203 -0.0275154 0.000901058 -0.0305304 -0.0225218 0.000895327 -0.0310912 
-0.0209681 0.000943235 -0.0301784 -0.0274542 0.00269869 -0.0305672 -0.0253271 0.00226627 -0.0307008 
-0.023613 0.00201381 -0.0302001 -0.0217924 0.00252969 -0.0311939 -0.0200148 0.00233715 -0.0310846 
-0.0171568 0.00238197 -0.0309688 -0.0228669 0.00377678 -0.0304501 -0.0208359 0.00376525 -0.030288 
-0.0186344 0.00303086 -0.0301749 -0.0280005 0.0043425 -0.0300889 -0.0250203 0.00490806 -0.0307113 
-0.0171967 0.00411726 -0.0304833 -0.0277029 0.00641105 -0.0303573 -0.0226012 0.00600996 -0.0305579 
-0.0191543 0.00536312 -0.0310779 -0.017935 0.00635483 -0.030191 -0.0250686 0.00667789 -0.0304045 
-0.0211762 0.00706645 -0.0311581 -0.0244075 0.00833289 -0.0301706 -0.0228218 0.0077745 -0.0308369 
-0.018553 0.00795378 -0.0309272 -0.0271901 0.00944164 -0.0308261 -0.0253001 0.00988618 -0.0303497 
-0.0188323 0.00980248 -0.0310533 -0.0172613 0.00913905 -0.0305047 -0.0236086 0.0107767 -0.0306341 
-0.0219439 0.0102039 -0.0310959 -0.0205219 0.0104084 -0.030028 -0.016018 0.01042 -0.0301545 
-0.027097 0.0119782 -0.0309086 -0.0251663 0.0116687 -0.030566 -0.0223612 0.0120941 -0.0310621 
-0.0204752 0.0121495 -0.0305733 -0.02793 0.0134621 -0.0301427 -0.0261283 0.0134353 -0.0305216 
-0.0178735 0.0135464 -0.0310107 -0.0161192 0.0133038 -0.0307258 -0.0244393 0.0139435 -0.0302017 
-0.022745 0.0138624 -0.0307972 -0.0202363 0.0139468 -0.0301713 -0.0270553 0.0149135 -0.0309437 
-0.0249626 0.0155852 -0.0307445 -0.0231762 0.0158116 -0.0306905 -0.0189029 0.0150559 -0.0306488 
-0.0167862 0.0149757 -0.031073 -0.0176624 0.0162726 -0.0301872 -0.027643 0.0176205 -0.0304177 
-0.0253018 0.0172995 -0.0303115 -0.0224367 0.0183354 -0.0307299 -0.0206175 0.0176384 -0.0304609 
-0.018842 0.0176284 -0.0301652 -0.0182813 0.0192008 -0.0308295 -0.0164879 0.0191717 -0.0310257 
-0.0288292 0.00152424 -0.0293016 -0.0249847 0.000894601 -0.0295949 -0.0191789 0.000982134 -0.0299599 
-0.0173091 0.000896295 -0.029975 -0.0262485 0.00233295 -0.0291569 -0.0221579 0.00258197 -0.0293096 
-0.0202172 0.00234766 -0.0292882 -0.0171629 0.002702 -0.0291985 -0.0262629 0.00402301 -0.0297616 
-0.0244839 0.00351069 -0.0297132 -0.0292577 0.0047926 -0.0288586 -0.0237631 0.00514059 -0.029454 
-0.0219631 0.00472763 -0.0292284 -0.01894 0.0046066 -0.0293624 -0.0172579 0.00513283 -0.0290018 
-0.0258534 0.00566557 -0.0291437 -0.0204454 0.00546784 -0.0298306 -0.0289934 0.00659477 -0.0291117 
-0.0271412 0.0072083 -0.028822 -0.0235967 0.0069337 -0.0293684 -0.0216493 0.00673091 -0.0292066 
-0.0196206 0.00706003 -0.0297876 -0.0281731 0.00818547 -0.0299259 -0.0261445 0.0084126 -0.0297119 
-0.0213791 0.00836301 -0.0299197 -0.0180741 0.00825061 -0.0291672 -0.0287313 0.00991832 -0.0293911 
-0.022918 0.00928942 -0.0298694 -0.0196542 0.00885573 -0.0297666 -0.0164544 0.0089808 -0.0289109 
-0.0267481 0.010711 -0.0296322 -0.0248709 0.0110262 -0.0289113 -0.0221073 0.0111328 -0.0295639 
-0.0188542 0.0109458 -0.0296388 -0.0284049 0.0116592 -0.0297115 -0.0269847 0.0123702 -0.0288765 
-0.0236161 0.012338 -0.0297228 -0.0206283 0.0118235 -0.0288113 -0.0170936 0.0118518 -0.0299937 
-0.0292492 0.0130136 -0.0288695 -0.0252527 0.0127781 -0.0290993 -0.0219367 0.0129373 -0.029482 
-0.0189676 0.0127301 -0.0297937 -0.016023 0.012895 -0.0289533 -0.0275278 0.0148223 -0.0289389 
-0.0257716 0.0147648 -0.0293173 -0.0231498 0.0146993 -0.0292125 -0.0178066 0.0143577 -0.0293985 
-0.0289065 0.0159357 -0.0292296 -0.024429 0.0159467 -0.0290656 -0.0213899 0.0150137 -0.029299 
-0.0266872 0.0162381 -0.0297822 -0.0219338 0.0166776 -0.0297066 -0.0200279 0.0161068 -0.029724 
[...]
POINT_DATA 10000
FIELD FieldData 7
id 1 10000 int
2883 354 4332 4500 4784 4437 2060 1436 2244 
280 3408 3952 2445 1028 4629 2619 4642 2849 
4349 332 3246 1577 533 1363 1814 3516 1975 
2533 811 495 4373 871 2807 3042 3362 3993 
4025 2380 1625 4525 3289 4874 1130 4049 2618 
2017 352 3323 3598 4455 1081 4833 4760 954 
4605 3623 2173 2605 1664 3399 3405 3371 522 
1434 4022 675 1576 4829 3388 1309 226 4410 
449 2322 4260 227 4606 3150 2458 2430 3976 
3505 861 869 570 2312 3649 4656 524 1407 
1958 4218 1098 2030 624 2804 252 1071 3099 
3880 1228 1619 3194 949 791 2106 3936 2921 
4128 930 1640 1916 4718 1710 4405 3821 2104 
1032 4099 2562 3955 2582 3893 857 2906 1223 
1079 2606 3859 4803 4146 264 3429 3772 3299 
2861 1847 4414 3817 4150 617 4462 4126 1596 
4721 1016 885 1272 2755 4649 2140 2242 3307 
2503 4793 3965 1809 4501 1990 220 4745 4244 
2873 3853 23 2087 4661 729 4571 1374 1337 
1101 1340 322 215 1753 302 2811 3391 3192 
4468 834 2123 4873 4368 3079 2147 4648 3639 
1189 2092 1817 86 3870 4164 3891 1414 2011 
4688 2138 3599 654 955 1339 3994 4227 1761 
2186 3308 991 4798 4560 1064 1876 461 3435 
1602 32 4282 1183 2124 1145 2349 4242 3536 
432 2593 2971 257 4657 2539 2452 4057 1074 
2785 1070 1207 2187 2856 9 4082 2371 2839 
3113 922 4004 1651 1557 487 1718 1006 1555 
4180 2929 2514 4116 1701 3822 990 2006 4086 
3983 2100 1341 1623 3070 4673 787 4691 1365 
726 1561 2329 3075 2310 1922 1776 460 8880 
2901 1933 476 1398 7289 3013 3973 3592 3906 
2794 3163 2473 2826 827 3538 670 1212 4440 
2125 4436 4645 3293 3653 1370 1113 4292 1248 
3212 2566 4705 3587 2089 3654 8170 3790 3546 
2359 1267 3047 3309 2447 4964 5 4517 3939 
7564 1460 839 4490 4340 451 3420 4818 4579 
2083 2399 4273 1520 3002 970 1472 1755 2974 
987 4616 270 2687 4270 3519 3918 3761 1677 
959 2684 3479 3692 1360 4795 1106 1537 4652 
1236 1874 4725 3146 2507 387 1938 1680 2659 
1774 2600 3205 4458 161 74 1558 1477 1675 
3271 431 3003 1100 1140 2374 463 1579 371 
3481 483 509 3840 4174 484 6836 3257 1096 
1361 2937 3865 6072 3506 1929 4114 21 4416 
745 3686 4709 2658 2479 2588 1890 1900 394 
3027 3847 642 3103 4778 380 2889 2220 3235 
63 4307 88 1330 3684 6096 1419 1766 2439 
3895 256 4584 1102 101 3575 184 3825 3530 
4855 2009 9115 1516 273 8984 1369 3517 4433 
2476 3876 1821 3855 4229 438 1553 1552 1192 
3313 3525 4214 1156 266 3577 1580 2403 3462 
4318 1614 139 1997 1946 2255 42 4508 1255 
3097 2812 849 3199 180 3503 1857 4878 4262 
2735 2309 1969 321 3223 2193 1635 1825 1321 
2610 4832 2819 4226 4859 1083 1588 136 681 
1087 952 4578 2130 4840 2958 1257 1231 482 
1335 4655 3862 1865 3698 9162 4590 1795 2163 
4689 6009 6462 326 311 8923 1568 3620 6273 
2891 2051 2995 2761 9135 685 4682 3981 3629 
1704 4369 2230 1948 333 5497 3501 3728 2845 
3680 4979 4530 644 4235 2164 3071 4643 1519 
3659 4669 3705 3543 4747 3919 1497 5370 3748 
2133 1926 3944 3535 2265 1624 3689 623 3533 
3421 731 7092 351 1994 1134 800 3009 3597 
2505 421 714 4251 2996 3411 3613 2188 3609 
2335 2318 4532 1256 2799 8910 8162 3632 761 
9034 6047 8164 989 608 441 816 4326 3694 
6658 254 211 4564 6833 3765 1401 3020 3007 
3508 3173 7765 8869 2938 1840 4015 8206 1979 
1767 3201 4016 1474 1687 2477 4169 1697 4081 
3218 3557 3094 8246 1446 2574 1593 2216 3239 
2720 2762 2136 2088 238 4903 3959 1306 771 
4632 2422 4871 3177 3573 3422 2048 3014 8724 
630 3107 4919 423 3850 6685 3389 1399 2144 
4880 22 4113 3670 2270 1974 4744 684 4008 
1421 934 3219 1768 1014 8960 924 7465 2871 
4456 3043 2182 208 2069 870 9123 4519 2281 
4553 1985 1976 1404 671 7158 5245 8318 4243 
4600 4011 1067 8429 3552 2678 2002 1049 114 
3134 781 14 8412 2703 3539 4844 3655 2853 
330 1536 7905 5611 1600 4722 1030 4070 68 
8564 5882 4228 4443 3292 5621 6759 7044 3838 
2366 1844 8832 4667 2998 1107 2509 360 272 
4908 7270 4565 688 1029 3811 2709 2550 1793 
1420 382 510 7387 2734 3787 2959 2968 9358 
4927 3286 2617 5537 370 3074 2206 907 6595 
2434 2940 3092 2210 5957 7307 4726 2989 2491 
250 4007 9023 1392 3647 4476 4486 4482 6747 
5012 3570 2044 1512 1852 4912 3563 8866 1502 
2538 9001 7867 1307 300 3766 1957 9310 1259 
2340 4922 5897 8929 4748 2531 4400 3894 4752 
9087 5461 3625 591 3188 5629 8509 3493 554 
2529 635 1393 2764 5350 6053 5560 886 961 
4219 1562 2546 1068 4740 1269 1311 85 6253 
5580 5534 1678 2 1112 1379 997 9680 4029 
4167 3093 3441 1959 4315 7252 4170 4678 1949 
1315 705 8565 2884 3126 3932 3669 3681 5788 
5323 1233 3253 4717 4850 6263 6664 8573 3958 
3116 1509 1964 4120 1082 2869 4774 8149 5339 
3760 8806 4341 877 850 8329 8614 945 1221 
1104 1164 4602 2575 2003 7921 7228 7971 4558 
3802 4091 4176 5124 5829 6425 4337 2917 6876 
8522 3914 100 1796 1061 3111 344 6682 8326 
1076 355 2564 1215 290 8693 810 3656 216 
8298 4163 2549 2078 1273 4613 7470 9079 4286 
79 301 8 5756 5477 7516 3956 108 2966 
9218 7127 200 1892 2969 2711 511 860 1038 
34 529 2311 8955 7550 4845 3015 1204 2291 
3975 2622 2328 3387 9209 1004 1943 6686 5911 
7365 4421 2668 1601 1366 4770 6655 5011 946 
7324 6161 7546 3693 1681 3329 6886 6783 595 
4856 625 867 1732 3224 1270 9312 5192 3978 
1091 2827 7109 5642 2801 1954 2436 5139 6293 
4370 690 1918 4739 293 8539 5538 2075 913 
822 597 4344 3326 5988 1982 2530 2700 2717 
3640 5058 6117 8980 4537 2283 5200 5148 3816 
4503 3793 6214 4618 3091 9446 6071 9276 5215 
2018 4540 3210 5046 7083 4712 4853 4588 3774 
2055 4240 2923 7271 3708 601 4554 1671 222 
7677 6255 8313 4272 4680 3288 3469 8621 1911 
8067 1383 189 2267 4181 7030 8222 2222 1362 
2426 4068 898 4594 8809 859 1395 2715 3432 
6749 3464 710 4250 2594 3195 8468 1595 2334 
3757 2644 3354 5412 9103 1252 381 7903 5224 
3238 1658 673 2358 5485 704 2862 7275 3284 
2931 1359 1427 3320 3750 5000 7411 411 361 
2489 2528 430 4887 8595 8334 1017 4347 4573 
363 743 6604 6545 2897 846 3283 25 3455 
4071 3992 202 7476 915 918 8023 9058 687 
2866 4714 1411 1861 8655 7490 4152 2457 4692 
2892 2877 350 8769 1186 1819 8178 7320 5776 
2867 241 3585 2485 2793 1496 8987 6475 5144 
2686 3553 4216 2141 6064 8805 5040 832 4045 
4396 2397 2936 6248 5070 6434 2677 2202 2798 
4397 2517 1109 8932 3845 6086 8591 942 662 
1037 4599 7817 9169 1408 4276 4154 4033 1003 
971 2980 7182 8399 8904 1253 3511 586 8483 
8090 7013 1249 813 1801 5028 4111 2951 83 
5852 1235 6398 2510 1541 4294 318 6790 5823 
4900 6825 1531 1597 1266 8420 4607 9216 9024 
5986 1708 1484 3160 2387 6359 4317 3436 4284 
4073 3185 335 5631 1063 9405 7816 1996 4036 
6578 4805 9225 5289 7464 9040 9047 4051 1373 
1762 3584 6414 6137 7054 2616 2719 4763 7412 
406 6523 6249 9432 1605 668 5533 8942 1578 
224 2911 4730 8199 7676 3671 2167 3912 2624 
353 103 8525 5247 1727 4772 19 1124 4404 
6829 1966 699 2758 166 5615 8915 3164 424 
3892 477 2313 6671 8883 1716 3738 2478 1153 
3922 1388 9433 6191 197 499 582 2791 1387 
4875 5863 8077 508 4935 2370 3594 3338 5675 
5865 1679 3064 3353 3196 9380 9883 6225 1293 
1797 8709 8836 700 3574 426 639 2289 6548 
7339 8001 7957 5846 3258 562 2689 2551 878 
3864 9144 7017 5883 1935 2217 1299 2013 234 
111 1494 1764 7448 7598 485 721 2341 225 
8667 9368 3249 3062 4493 7338 7178 6695 6939 
4625 4481 2372 1612 904 8750 5128 5696 6383 
9451 5856 2015 3755 927 656 6631 7962 4199 
261 2577 1279 3819 6991 3554 530 8017 5950 
3916 3704 2348 7561 8917 4719 8443 11 979 
2484 3515 2704 2023 7801 7613 8500 5146 3644 
8740 7756 2521 1442 1570 1866 3951 9163 205 
7085 5868 2135 2176 2480 1527 629 5754 1413 
3842 712 3407 5399 8488 3318 622 2944 5551 
8218 4422 4647 2488 3274 4052 6784 9193 6056 
3770 1479 3439 4143 1292 1905 8797 5796 3933 
331 2304 6334 9296 7358 1909 3262 9150 4970 
5679 1467 7591 8870 6239 2377 3810 2008 4366 
4239 1035 458 4527 3 7853 8386 7750 8281 
3820 2499 2352 8341 1977 661 4595 854 4192 
3138 5271 5507 7727 5133 9711 4737 6428 5535 
6606 561 3444 1146 3325 1598 5032 9172 6422 
2251 4206 823 1798 3873 6665 3612 2603 2815 
2190 5748 5670 8538 4088 828 1777 5241 8014 
7010 7909 8895 1391 984 1694 7932 2364 7459 
6220 3447 2756 1820 2406 8852 4593 206 2433 
1093 2881 5098 6730 2557 3675 607 709 7776 
5433 9313 404 4518 4703 4124 6061 8770 5169 
8815 3084 210 4924 1556 7562 8681 6980 920 
8528 3101 3332 2195 3745 6406 5066 6808 2419 
2171 9339 2343 8640 7425 8871 9594 4929 1582 
2066 385 1811 1053 8694 6579 6435 8594 9008 
5767 4576 2256 4253 9158 5649 5384 951 1457 
2442 1278 1500 4968 8567 5762 5956 6418 2899 
5027 5106 4064 3089 3204 4247 840 2744 6525 
4413 160 3727 2724 1033 1135 7533 5076 4357 
2258 303 872 7160 7037 9020 1300 3723 4569 
2790 1690 2004 6913 2288 2886 3796 7487 4628 
320 1418 1042 4006 5712 5467 7450 2770 3941 
2132 4783 3610 2979 7911 221 4939 6513 9622 
9275 1147 2655 1329 875 559 1746 5194 2080 
7616 9692 4926 680 4535 2016 2834 118 8941 
8383 4965 203 4382 8555 9232 7814 2492 128 
2024 5792 3025 9097 2490 471 1961 4259 7473 
7323 7929 7877 4305 4283 1521 4834 4598 6066 
8974 4781 4769 2934 2214 8728 2833 2647 5512 
6242 9519 2142 2513 9267 6456 7701 8079 442 
1011 2646 4411 3248 2074 1034 345 6466 6195 
2233 2449 1931 2049 2054 4976 5344 5376 3171 
2747 1991 7090 9244 7316 3110 4802 3465 287 
3340 2483 6884 6922 4190 2264 1717 2847 2710 
1919 1611 1504 2227 1867 7592 8041 9624 4231 
3743 4704 958 3330 6864 7742 1709 4365 3833 
3215 2185 9630 4700 4207 2910 862 1864 2128 
6234 818 1758 3528 8854 5314 7399 7876 2797 
2105 4427 8053 6238 3364 7353 1551 8967 2737 
3848 396 3931 6557 5923 9070 9170 1485 3722 
3230 2165 7885 2156 107 8133 7120 2347 3346 
2268 4032 4863 1748 4786 3276 641 908 3522 
9274 2431 1473 3460 4622 1754 2585 3083 9182 
2323 3489 4604 1240 574 3897 2437 6184 7129 
9452 9865 2824 3507 1152 3908 4314 8673 2962 
2046 1683 6492 5734 5862 5800 1878 1287 4420 
1499 1510 8094 7844 5817 8831 8223 1501 2701 
2194 1891 8749 7349 4375 820 3053 3635 4639 
4266 4104 12 4139 5635 4492 3417 5885 4767 
4023 3100 1962 89 2424 3006 9592 917 3077 
57 2112 2840 3520 4077 838 1810 2429 2454 
1232 9916 9959 1234 2297 4392 620 7389 9371 
4271 4221 3449 844 218 193 9589 1187 62 
81 2727 8401 9136 6099 9650 3190 9164 2878 
3818 1176 7653 7502 8351 2757 689 2685 733 
1238 2987 3797 539 2314 7617 8837 8390 6894 
1914 1610 4103 3056 7201 8047 8128 4208 377 
389 2324 276 8909 1095 1615 2022 1696 2438 
6568 7451 8353 830 2398 3962 2773 2787 6608 
6198 8513 4236 6030 9237 677 4914 2365 4080 
4401 3567 5213 60 2945 3509 3241 1226 1397 
7603 7759 2541 3741 3480 4854 1086 3966 3834 
1936 3646 4129 9875 2822 716 2166 40 1745 
4867 6305 357 1712 2108 633 3736 6908 9426 
2527 1907 3457 2545 985 686 2126 2407 3360 
1984 1165 2000 503 3769 3214 4014 3794 4683 
4055 9309 8787 3900 4474 525 112 127 3867 
2716 8865 232 8575 1154 9415 2643 1812 1002 
1672 9390 6596 7758 3561 1350 3685 121 7843 
4138 4110 6765 5173 4923 6517 3688 3167 792 
3104 909 9794 517 632 1280 3028 3621 852 
4957 4901 4830 2848 7183 9949 4182 4118 4387 
457 738 3118 5890 2391 9997 3909 2308 186 
1854 4100 7074 7188 4186 3306 3208 4356 383 
6700 5896 6731 5162 2994 435 3406 3081 4848 
1343 201 1289 178 2578 376 3414 612 567 
6169 4715 2599 1438 7224 4026 4507 3295 138 
4862 2247 6819 9924 299 2964 2673 8042 4148 
1216 2115 2073 3607 9262 4942 2738 5597 5272 
5653 4487 1713 3057 7996 9195 604 3746 2983 
749 1692 8193 4301 3558 7146 698 7784 4528 
3595 996 3798 1428 5842 1665 2183 1355 6666 
3964 9578 9608 4534 1581 6688 8562 7298 6256 
9777 1875 492 1039 3771 1726 413 1483 841 
1714 3416 4417 1092 2768 1464 6496 9419 3883 
8763 4866 3782 129 1782 4928 4362 2375 3591 
7328 3550 4399 4053 2525 315 786 9151 6016 
5872 3431 1573 1770 2718 2841 4198 724 3927 
8342 473 7156 4810 425 3008 1219 4641 2522 
3121 7309 1740 1493 4889 9841 248 4147 1654 
3804 2396 4570 5243 4610 3154 1210 412 1062 
4547 636 9905 6430 7615 58 418 2005 7116 
711 7199 5413 1763 4412 4168 2057 4627 5226 
3586 9872 9110 3088 881 6506 4351 1384 3337 
4061 7951 1356 8482 6131 8773 93 4513 337 
2863 5861 4117 1200 1735 1352 8649 5155 3335 
1685 782 921 4539 132 3339 3324 2984 6443 
4936 3872 2694 8256 9223 9002 7467 5541 528 
308 2597 470 4728 1026 9348 1334 1133 1799 
8463 196 3581 6315 4836 1118 4720 2875 2362 
3221 285 1495 8172 2920 9689 578 2591 3459 
6543 4428 2042 4438 8272 7638 9411 1158 2750 
3666 368 2410 65 2470 7279 3351 2261 1443 
7063 5309 6204 2882 3882 1327 1937 6528 8975 
4145 3637 1310 1431 277 2954 7689 8803 9157 
4478 627 1332 3341 4308 7961 8198 2614 537 
4906 3953 801 3377 634 1222 2784 1172 7008 
9977 1786 9654 3197 3628 975 4743 3016 1320 
4495 4757 6574 1534 899 9648 3521 3954 297 
3739 3382 837 8759 1543 1088 1048 38 3854 
4254 8442 9656 3650 694 1670 4589 8578 3963 
4320 4902 6152 7709 2263 3115 1592 2602 2629 
7787 6919 4475 2084 611 956 2952 5281 3707 
2338 7777 8397 6502 4430 4723 1684 4592 4676 
2278 9970 9460 4890 2021 599 7380 4278 8723 
4200 4915 4768 3165 3052 4846 727 4394 1832 
1638 4796 9982 5421 600 788 505 3184 4531 
3700 2830 4624 3998 400 4469 3662 7125 1816 
2977 501 2660 56 1789 1027 1302 6082 1430 
1660 2555 3331 1056 3925 3264 9085 889 3182 
2026 3124 9373 8764 7942 1587 4556 1465 2515 
346 713 1357 2228 372 1441 6 2918 4090 
4001 7417 5858 3564 2226 4917 2820 3112 1643 
1163 4465 8822 6587 9709 24 3086 3831 3852 
2973 3490 992 3778 1742 580 4102 2772 2560 
1258 4472 1897 4323 9704 5018 3471 2825 4297 
4753 258 2583 5345 5355 9297 2192 1574 571 
1693 2094 2573 2860 8085 1818 198 2775 4693 
618 2837 8486 3384 521 1870 740 2493 7076 
1024 3473 3730 3604 4177 2146 1858 3562 6175 
1550 2680 1108 3773 5695 3176 868 5086 676 
2091 7216 2276 500 3109 4893 3995 9703 288 
67 3049 4567 2400 393 5468 8252 4583 1482 
2082 3282 6992 1637 3943 3425 2796 4611 1160 
7151 9179 1179 4223 3529 2651 887 4280 9750 
77 2743 1547 2486 9801 4931 464 2043 4358 
84 9782 3011 7172 3887 3202 3368 9902 9645 
2356 4339 2722 98 2759 1351 3105 3140 8798 
7659 5935 1572 4477 1899 2926 923 2446 9936 
146 1368 3926 4195 912 5322 4731 4690 4329 
3021 3001 3718 3682 2241 6231 615 2498 1634 
1007 5152 6395 2316 2621 819 7268 5474 1829 
4298 2909 3788 2086 9978 4736 2287 538 20 
2904 1451 1260 1724 2029 6288 7958 4046 4310 
3302 3477 7852 7672 1882 4459 1449 1965 1851 
2990 2771 2745 8087 3305 2912 4612 3701 6079 
481 488 1917 3513 1184 5348 6793 5610 2299 
1873 1254 2253 260 33 865 3712 1285 462 
7512 4967 1641 1105 8586 9947 493 4453 4336 
4249 3938 802 6417 2789 4380 2482 831 1268 
8064 2467 310 3139 1488 3731 4536 5067 9213 
2706 876 2638 4107 2175 1877 2466 5141 247 
6436 5392 1008 3034 1149 2300 4333 6465 6035 
2559 3336 1417 4172 649 7732 6010 780 4044 
1802 1085 569 5909 4505 750 1281 1524 3534 
814 9502 8710 2376 1295 378 9963 5617 1920 
4197 707 433 4608 4670 3524 3813 8742 5662 
2828 3624 6274 8260 1054 417 177 497 702 
8765 3096 3415 4257 2506 1599 9629 5361 2235 
4012 770 4398 1025 3149 2252 1313 2456 1730 
4360 9685 598 3588 746 1620 3987 3907 1807 
9877 8125 4439 7460 2468 240 72 5191 9671 
4538 2058 4408 2174 4542 1265 2633 7435 4210 
3123 1241 1826 2652 3085 4498 4211 4710 4157 
1338 666 2567 8435 480 3255 9778 8490 2681 
1636 755 1978 1608 6672 175 4921 2213 682 
6529 6319 8779 4789 3504 319 1711 5763 9265 
9132 167 1331 2412 962 9827 9812 5439 2879 
1860 1950 317 4633 4041 4940 1126 515 3484 
3678 2746 5097 190 825 548 90 4018 1835 
9335 1923 3463 165 4523 2792 966 8583 2474 
1208 3601 4268 5080 9931 6437 104 2196 294 
903 49 6954 5450 3940 1263 1653 3466 3996 
1498 2361 3541 9130 1549 3542 2502 446 436 
4759 6683 5358 9056 1783 429 3000 8469 2039 
1895 1585 3229 3851 1439 8921 9911 444 4916 
4078 2672 2056 1246 5766 647 4042 3540 1245 
6474 2441 1298 5010 4003 8818 6328 2511 7462 
4054 1719 2518 2653 5157 5326 5517 3136 2520 
296 7632 9178 504 1850 1381 2045 2552 9228 
4815 6403 4858 7492 2865 6179 6460 7655 30 
313 1845 2395 6470 2589 1747 2950 53 5819 
9263 7388 5111 1348 472 5552 9549 7445 8270 
4424 4331 805 8970 6869 7522 2237 1283 2269 
1956 1159 2184 874 9853 4209 7495 4047 526 
6171 7883 758 3467 7439 7235 1699 2726 1941 
7762 6421 7822 4165 3884 4681 8379 577 3836 
9710 4754 2025 120 6284 6060 3917 69 3866 
2061 2143 3058 6985 7446 565 4123 1853 1901 
6075 9255 8433 4265 2898 4442 7173 7839 4572 
4615 274 4877 3233 6046 9444 2942 9198 5440 
7352 6247 9723 3376 2369 158 1099 5094 7520 
9065 5129 1769 8141 6943 6062 8458 2965 395 
9536 3942 6975 6554 2155 8669 2129 8686 7142 
5212 7590 4378 8692 7838 7508 3180 1567 9909 
1148 4255 1628 6938 9094 8671 8758 9074 4178 
4983 7194 8947 8322 1367 4105 1405 964 851 
2408 7954 8457 6681 6719 879 1987 4291 9146 
7088 3213 2821 9406 911 2894 8016 9520 9171 
3381 1155 3733 6803 6446 5196 398 4324 1308 
833 2464 8003 5351 9971 1138 9401 563 2949 
545 7661 6826 4232 3991 8009 4141 8354 7669 
5791 6279 3080 6484 2569 4961 1089 999 3812 
4758 3808 1780 5199 7690 9817 9582 6721 8059 
5608 9729 6680 8400 4521 8623 8592 757 6852 
2215 1229 1047 6537 7413 8288 9756 6103 8781 
4059 572 6601 6429 7934 6816 774 4043 9220 
6850 6570 9980 7016 7111 3762 1925 535 5948 
7260 5646 7788 9773 5901 9028 799 6085 8393 
4451 6750 7438 5393 8258 9521 183 7223 1700 
5493 9658 8783 6048 1444 6979 8802 9728 9420 
7584 3039 2037 7636 7531 9688 8550 3768 6495 
4807 795 125 5408 7566 9538 5572 6440 9376 
5604 9233 1174 6369 5769 6147 7423 7455 2207 
2547 8637 8504 3413 4984 9245 6959 7169 9745 
6977 6162 6874 8571 9477 3827 8221 8517 8011 
9147 6134 5884 9985 5283 3735 6172 6023 6372 
5790 9762 9646 6142 8211 9627 8541 5405 8992 
4943 4999 7943 5256 4775 6044 3687 6473 6114 
7793 7667 4668 9464 9036 6684 9651 9439 5053 
2363 8794 5265 6112 1955 7691 5486 9005 439 
6363 6392 5085 5591 9933 8106 7888 6974 5969 
6549 5149 8055 8268 3719 6373 1995 4707 6316 
5613 4115 7702 7428 9810 8364 5903 7761 9828 
5473 9803 6069 3186 6536 5388 9134 9726 4945 
8582 7084 5249 6740 6969 7189 7781 5963 7737 
5836 6007 2512 7974 5030 7915 5087 9944 7077 
8441 6717 8022 5371 8101 9748 7236 7626 9479 
8348 8584 6382 6585 7197 8292 9967 7939 5276 
8972 9798 6504 5021 9212 9522 8045 7433 7568 
1319 5626 9917 6058 6449 5204 9939 8608 7336 
9298 6998 9686 9088 9739 8823 9922 9659 8833 
8434 4966 8579 7391 5505 9869 9894 8808 9553 
8627 7734 6841 5423 8828 6123 6213 5787 9174 
8744 7819 9564 6116 6958 3200 7730 7795 7983 
4261 8532 9811 6077 6802 8006 9416 7834 9256 
9116 8518 5532 5132 8217 6602 6394 5189 6968 
9248 8352 7946 3896 9494 5103 9954 7477 7282 
5209 8857 9626 7895 6019 5730 9601 8428 5853 
9968 8756 5990 6130 9806 5120 7493 9797 8810 
9299 7132 9272 6310 5288 5614 7051 6930 8215 
6337 6193 9814 8508 6101 9638 9462 7766 9891 
8166 5647 9600 5640 5922 6013 5186 9886 4989 
7483 5316 9618 9641 9202 5230 8632 5928 9328 
9955 9826 9788 7440 1052 9362 7535 8536 5943 
1410 8933 7969 9200 6381 6912 7233 8876 7057 
5065 5257 4994 8761 9690 7910 9774 8195 6552 
8771 8236 8812 5397 6457 5367 8373 7602 6088 
8946 1506 6163 8257 5906 8687 7164 9597 9816 
6955 7193 6575 7865 9898 9884 8881 9754 9914 
9957 8729 9675 6696 8685 5749 5127 5782 5404 
8034 6716 7743 5741 9712 5072 8566 9326 6003 
5229 7291 6432 5843 6648 9259 8577 9752 7889 
6827 6043 9842 6264 9787 9964 9821 9705 7894 
6367 9912 9927 8747 9458 5406 9156 9219 8324 
6078 8877 9092 9590 8672 8718 6906 5428 7798 
5069 9831 9882 9921 8493 9696 6004 8296 7367 
6344 9855 7283 9946 8461 7500 9962 9120 9402 
7128 6512 7600 8445 5786 9497 9661 7133 5427 
7873 3117 8817 9714 8074 9332 9604 9948 7421 
8424 5636 9345 5255 8287 8713 9895 6584 9543 
7736 9644 7012 7239 5143 5558 9593 9148 6828 
7064 6068 8410 9915 5504 9607 5666 9069 9973 
5702 9694 9838 8385 4996 9940 7331 5471 7034 
9765 5462 8952 9795 6385 7815 9965 9561 7359 
6450 6866 6409 5096 6201 5983 6903 9142 9825 
6479 6155 7770 6115 5509 5774 9952 9161 9389 
9118 5620 8201 8625 7904 5034 5090 9567 7554 
9832 6501 9282 5870 9724 7937 6265 7186 4951 
9530 7720 7098 6459 5346 9757 6718 9719 8277 
6283 5638 8945 8184 5976 9613 9767 5434 8872 
5390 9098 9480 6034 9537 8629 9546 9528 8110 
6577 7967 5119 9038 5123 9991 5814 9472 8913 
7855 9698 9579 7119 8615 5401 7021 5457 8444 
8559 9780 6872 8026 9663 7576 5301 5583 6674 
9943 8452 9701 9790 7379 6505 8203 6271 6697 