# vtk DataFile Version 4.2
Generated by LIGGGHTS
ASCII
DATASET POLYDATA
POINTS 10000 float
-0.018264 0.001813 -0.0368191 -0.0177647 0.00410741 -0.0370633 -0.0190152 0.00668321 -0.0364465 
-0.0179684 0.0087363 -0.0369647 -0.0190339 0.0101159 -0.0364322 -0.018611 0.0120203 -0.0366479 
-0.017872 0.0191218 -0.0370189 -0.0211862 0.000925146 -0.0352211 -0.019555 0.000897252 -0.0359726 
-0.0202725 0.003394 -0.0357558 -0.0182828 0.00396613 -0.0353496 -0.021176 0.00488891 -0.0352285 
-0.0195742 0.00500455 -0.0361409 -0.0201767 0.0063717 -0.0351209 -0.0210752 0.00804701 -0.0352952 
-0.0195391 0.00838266 -0.0361615 -0.0205639 0.0097446 -0.0355807 -0.0207274 0.0119649 -0.0354959 
-0.0207719 0.0137659 -0.0354584 -0.0192463 0.0141556 -0.0363201 -0.0176741 0.0140177 -0.0354663 
-0.0201751 0.0157402 -0.0358167 -0.0183858 0.0156377 -0.0357821 -0.0213791 0.0177228 -0.0351054 
-0.0195435 0.0173823 -0.0361628 -0.0177939 0.0177057 -0.0359158 -0.0194574 0.0191777 -0.0361839 
-0.0227029 0.000899154 -0.0342626 -0.01967 0.000888713 -0.0341765 -0.0180255 0.000918103 -0.0348845 
-0.0218204 0.00256465 -0.0348382 -0.0190799 0.00245921 -0.0347975 -0.0204358 0.00324074 -0.0339174 
-0.0225518 0.00413159 -0.0343643 -0.0195711 0.00474552 -0.0343644 -0.0232983 0.00568898 -0.0338592 
-0.0232841 0.00754818 -0.033869 -0.0219369 0.00644991 -0.0347573 -0.0184047 0.00695447 -0.0347863 
-0.0196808 0.00868863 -0.0343574 -0.0231376 0.00935547 -0.0339741 -0.0213472 0.0092978 -0.034032 
-0.0181399 0.00906938 -0.0352062 -0.0219247 0.0108402 -0.0347621 -0.0199515 0.0105235 -0.034081 
-0.0184391 0.0111431 -0.0350852 -0.0223422 0.0125963 -0.0345085 -0.0191723 0.0128023 -0.035134 
-0.0232382 0.0140312 -0.0338944 -0.0231929 0.0158295 -0.0339288 -0.0218035 0.0151423 -0.034843 
-0.0201321 0.0152497 -0.0341025 -0.0183377 0.0149902 -0.0341044 -0.0198392 0.0169907 -0.0344371 
-0.0229358 0.0176005 -0.034108 -0.0182051 0.0176305 -0.0340535 -0.0222466 0.0192 -0.0345615 
-0.0204569 0.0192051 -0.0346966 -0.0181761 0.0192018 -0.0349268 -0.0237752 0.000916227 -0.0328269 
-0.0211991 0.00153875 -0.0335149 -0.0181671 0.000897186 -0.0330386 -0.024728 0.00244065 -0.0328341 
-0.0230887 0.00251428 -0.0335704 -0.0191608 0.00239447 -0.0329738 -0.0222555 0.00380369 -0.0326244 
-0.0182964 0.00398671 -0.0333242 -0.0240246 0.00402997 -0.0333512 -0.0213164 0.00572983 -0.0332296 
-0.0196119 0.00627269 -0.0334232 -0.0177175 0.00640959 -0.0332251 -0.0245524 0.0066161 -0.0329664 
-0.0211651 0.00756784 -0.0335774 -0.0180797 0.00825007 -0.03359 -0.0245903 0.0092179 -0.0329373 
-0.0182445 0.0100334 -0.0336911 -0.0251708 0.0108586 -0.032492 -0.0236202 0.0110571 -0.0336346 
-0.0217113 0.0107104 -0.0329808 -0.0226595 0.0123116 -0.0327731 -0.0207506 0.0121106 -0.0337088 
-0.0189695 0.0119411 -0.0335686 -0.0245769 0.0124892 -0.0329508 -0.0195101 0.0136506 -0.0335892 
-0.0177385 0.0132229 -0.0338537 -0.0212886 0.013825 -0.0337401 -0.0250436 0.0165885 -0.0325939 
-0.0214422 0.0165316 -0.0337645 -0.0196797 0.0163625 -0.0327598 -0.020657 0.0180691 -0.03326 
-0.0251749 0.0192049 -0.0324969 -0.0237354 0.0191157 -0.0335594 -0.0219649 0.0192049 -0.0327912 
-0.0192317 0.0192002 -0.0333805 -0.0254771 0.000897054 -0.0322542 -0.0221248 0.000897963 -0.0321162 
-0.0199672 0.000895966 -0.032387 -0.0232738 0.00256976 -0.0317818 -0.0208498 0.0027516 -0.0322412 
-0.0176905 0.00234127 -0.0319357 -0.0264465 0.00354317 -0.031476 -0.0246947 0.00383586 -0.0317074 
-0.0189255 0.00362517 -0.0316798 -0.0220305 0.00519037 -0.0315081 -0.0202691 0.0044211 -0.0325729 
-0.0257377 0.00527166 -0.0320436 -0.0239851 0.00548284 -0.0316947 -0.0187034 0.00532651 -0.0321969 
-0.0226721 0.00662305 -0.0324531 -0.0209371 0.00703115 -0.0318886 -0.0257068 0.00766013 -0.0320771 
-0.0239374 0.00791566 -0.0318875 -0.0223861 0.00846271 -0.032609 -0.0196227 0.00792382 -0.0327289 
-0.0176765 0.00804155 -0.0318543 -0.0264242 0.0091922 -0.0314835 -0.023183 0.0100468 -0.0321847 
-0.0207268 0.00928843 -0.032345 -0.0189502 0.00947641 -0.0321421 -0.0200505 0.01112 -0.0323872 
-0.0182359 0.0111236 -0.0321482 -0.0238049 0.011625 -0.0315794 -0.021495 0.0117549 -0.0315329 
-0.0259875 0.0124971 -0.031834 -0.0239329 0.0136362 -0.0317338 -0.0205522 0.0131147 -0.0322286 
-0.0185705 0.0130279 -0.0321882 -0.0267101 0.0140646 -0.0312332 -0.0253706 0.0145324 -0.0323369 
-0.0222623 0.0140289 -0.032248 -0.0188691 0.0147972 -0.0323713 -0.0238897 0.0154278 -0.0318531 
-0.0221958 0.0158236 -0.0322956 -0.0206674 0.0148935 -0.0324375 -0.0178404 0.0165496 -0.0326653 
-0.0260636 0.0178219 -0.031782 -0.0242219 0.0179084 -0.0316946 -0.0225793 0.0175766 -0.0323482 
-0.0189886 0.0179096 -0.0321496 -0.020398 0.0192025 -0.0318886 -0.0263966 0.000897401 -0.0307137 
-0.0241103 0.00089079 -0.0310636 -0.0208654 0.000894029 -0.0308362 -0.0185551 0.00090474 -0.0312828 
-0.0277984 0.00193405 -0.0302822 -0.0252676 0.00225216 -0.0310937 -0.0218006 0.00242466 -0.0307586 
-0.0196753 0.00223732 -0.0308321 -0.0277843 0.00372872 -0.0302889 -0.0208385 0.00393213 -0.0308764 
-0.0262293 0.00459131 -0.0300408 -0.024437 0.00467357 -0.0301493 -0.0186426 0.00502189 -0.0304304 
-0.0269918 0.00602291 -0.0309966 -0.025315 0.00622318 -0.0303798 -0.0201746 0.0055663 -0.031191 
-0.0276639 0.00757772 -0.0303911 -0.0235112 0.00678614 -0.0305585 -0.0217425 0.00654599 -0.030366 
-0.0189986 0.00690617 -0.031391 -0.0250231 0.00799354 -0.0304604 -0.0226581 0.00880779 -0.0308688 
-0.0206227 0.00840916 -0.0307816 -0.0246989 0.00960023 -0.0311917 -0.0174775 0.00967476 -0.0311321 
-0.0277967 0.0107888 -0.0302759 -0.0261448 0.0108972 -0.0309846 -0.0230606 0.0105165 -0.0303817 
-0.0213913 0.0100852 -0.0308784 -0.0196086 0.0104448 -0.0307842 -0.0276695 0.0127954 -0.0303975 
-0.0247223 0.0126723 -0.0304472 -0.0227289 0.0127758 -0.0307096 -0.0201598 0.0125465 -0.0305692 
-0.0185466 0.0134191 -0.0304165 -0.0249942 0.0146531 -0.0305813 -0.0230898 0.0145954 -0.0304717 
-0.0213266 0.0139187 -0.0307193 -0.0272361 0.0157253 -0.0307889 -0.0200645 0.0153759 -0.030827 
-0.0183723 0.0159227 -0.0310679 -0.0255531 0.0163468 -0.0308873 -0.0220779 0.0160805 -0.0305205 
-0.019586 0.0171678 -0.0306078 -0.0265882 0.0175812 -0.0300881 -0.0230047 0.0176178 -0.030402 
-0.0212558 0.017575 -0.0311341 -0.0174777 0.0174753 -0.0311427 -0.0269529 0.0192009 -0.0310328 
-0.0251526 0.0191425 -0.0307146 -0.0230256 0.0192024 -0.0313473 -0.0214818 0.0192027 -0.0304081 
-0.018146 0.0191989 -0.0312202 -0.0288541 0.000895019 -0.0292697 -0.0270287 0.000902324 -0.0290344 
-0.0250488 0.001232 -0.0295663 -0.0225435 0.000894332 -0.030193 -0.0194531 0.000894395 -0.0296661 
-0.0263257 0.00281803 -0.0297614 -0.0181406 0.00207323 -0.0293332 -0.0289146 0.00284319 -0.0292084 
-0.0244914 0.00295214 -0.0296378 -0.0227204 0.0031522 -0.0294053 -0.0207787 0.00293553 -0.0293695 
-0.0177057 0.0034943 -0.0303461 -0.0226901 0.00511776 -0.029838 -0.0208662 0.00517902 -0.0295759 
-0.0283123 0.00580899 -0.0297933 -0.0267476 0.00581018 -0.0288375 -0.0240223 0.00600067 -0.0290184 
-0.025748 0.0072873 -0.0289887 -0.0232423 0.00762275 -0.0289954 -0.0198116 0.00665709 -0.0298114 
-0.0179782 0.00669472 -0.0298611 -0.0211033 0.00773535 -0.0291898 -0.0188751 0.00821774 -0.0301717 
-0.0284185 0.00905227 -0.0296908 -0.0261473 0.00958566 -0.0297566 -0.0239419 0.00915201 -0.0296272 
-0.0222101 0.00940278 -0.0292352 -0.0204365 0.00959355 -0.0294368 -0.0186502 0.00982287 -0.0293967 
-0.0247538 0.0107816 -0.0298442 -0.0277365 0.0118853 -0.0288549 -0.0260825 0.0119532 -0.0295332 
-0.0216971 0.0115116 -0.0297719 -0.0199858 0.0113233 -0.0292649 -0.0182175 0.0115627 -0.0294359 
-0.0272153 0.013601 -0.0288556 -0.0253614 0.0136384 -0.0290704 -0.0231826 0.013446 -0.0290886 
-0.0214118 0.0131492 -0.0290958 -0.0283065 0.0146722 -0.0297991 -0.0219749 0.0148528 -0.0290869 
-0.019964 0.0141097 -0.0295629 -0.0292441 0.0160532 -0.0288815 -0.0263614 0.0150998 -0.0293589 
-0.0239582 0.0161201 -0.0300895 -0.0207233 0.0161131 -0.0293395 -0.0185311 0.0163248 -0.0293293 
-0.0283349 0.0173199 -0.0297735 -0.02434 0.0175038 -0.0290101 -0.0214638 0.017746 -0.0293547 
-0.0183119 0.0181543 -0.0297051 -0.028769 0.0191818 -0.029356 -0.0269772 0.0192064 -0.0292394 
-0.0249039 0.0192074 -0.0289496 -0.0232225 0.0191958 -0.0295662 -0.0196815 0.0192005 -0.0302371 
-0.0245496 0.000898433 -0.0277081 -0.0228861 0.000898725 -0.0284303 -0.0211457 0.000902271 -0.0290677 
-0.0186807 0.000916463 -0.0280422 -0.0301266 0.00241562 -0.0279577 -0.0274129 0.00256056 -0.0282594 
-0.0256435 0.00224576 -0.0282019 -0.0237252 0.00244945 -0.0280979 -0.0219254 0.00254113 -0.0279088 
-0.0201966 0.00196599 -0.0279632 -0.0262169 0.00394549 -0.0283642 -0.0297168 0.00424605 -0.0283968 
-0.0279503 0.00446028 -0.028659 -0.0244486 0.00427231 -0.028401 -0.0221243 0.00441956 -0.0282849 
-0.019371 0.0040293 -0.0291261 -0.0296305 0.00603804 -0.028489 -0.0220868 0.00629841 -0.0286185 
-0.0197245 0.00577318 -0.0282507 -0.017995 0.00526579 -0.0287725 -0.0280816 0.00696397 -0.0284335 
-0.0244767 0.00716457 -0.0277345 -0.0182142 0.0069056 -0.0280723 -0.0294968 0.00807356 -0.0286159 
-0.0270099 0.00840904 -0.0283917 -0.0250234 0.00880015 -0.0282414 -0.0194922 0.00839234 -0.0284967 
-0.0176867 0.00854264 -0.028586 -0.0294724 0.0100639 -0.0286374 -0.0274353 0.0101313 -0.0286368 
-0.0257291 0.0106201 -0.0283402 -0.0236657 0.0103837 -0.0283505 -0.0213024 0.010635 -0.0282585 
-0.0295163 0.0118618 -0.0285982 -0.0263219 0.0123726 -0.0277983 -0.0243921 0.0121615 -0.0287599 
-0.0226732 0.0118799 -0.0283096 -0.0301061 0.0134474 -0.0279877 -0.0284623 0.012878 -0.0275505 
-0.0198322 0.0128349 -0.0283087 -0.0286016 0.0146104 -0.0280234 -0.0268115 0.0148538 -0.0276369 
-0.0180206 0.0146271 -0.0290572 -0.0303349 0.0152071 -0.027733 -0.0241451 0.0149286 -0.0287509 
-0.0195056 0.0152488 -0.0282584 -0.0274666 0.0162895 -0.0285827 -0.0256317 0.016198 -0.0281461 
-0.02269 0.016519 -0.0288784 -0.0293247 0.0177707 -0.0283465 -0.0260363 0.0179223 -0.0284199 
-0.0197554 0.017534 -0.0288306 -0.0235706 0.0186906 -0.0278641 -0.0218645 0.0192086 -0.0283976 
[...]
POINT_DATA 10000
FIELD FieldData 7
id 1 10000 int
719 4265 5872 6174 9685 8986 9420 6585 1016 
4216 9746 7064 1294 4114 4704 5617 7904 1442 
5614 8761 3653 9079 562 441 2289 6155 8164 
9622 9313 8777 2511 5229 4016 2338 7118 2594 
7125 9750 6512 1966 7172 1288 2971 1418 1207 
2550 7838 5146 4493 9605 2132 4871 2747 8469 
1572 9177 9753 761 3641 2853 4805 2481 5301 
7077 4806 5390 2138 7746 9432 6274 6306 7777 
662 2232 6771 394 2655 2502 8251 8125 9648 
6561 7216 5986 4506 2758 6067 7837 1557 2413 
1100 3208 5809 4712 6418 8901 9630 3810 9213 
4369 1574 3563 2662 8710 1687 1562 699 6575 
7876 4514 9855 6316 9959 3738 8975 8582 1153 
1473 2887 9777 642 7012 1034 6796 597 2617 
6315 6723 7233 8883 4146 8180 3543 7034 1150 
206 3185 22 6547 717 4482 7365 6135 3069 
7423 9772 1006 3201 7523 1935 5749 9275 522 
7839 4046 9501 5067 671 1154 7198 4553 4400 
8627 1605 8629 1955 1609 1931 4256 306 6459 
6284 461 8895 9865 9728 2819 3444 8195 2674 
4281 1420 820 1212 2335 7128 2457 4705 1287 
1204 7113 8055 1568 1338 3173 8816 2845 1704 
2541 1548 2547 566 460 2668 894 2281 9884 
7421 8490 5583 7199 8759 3147 730 8868 3172 
9608 6231 9675 466 3959 4718 4208 1104 9661 
6425 3401 1398 1690 9298 2835 3760 9402 4799 
5632 4007 9555 9688 1256 9773 2235 34 4186 
7480 9173 1292 684 9877 3855 9353 3525 2443 
969 1976 9094 955 4528 5589 1879 2013 7781 
6305 248 6705 1339 6169 6094 2402 6089 1658 
1727 3958 2240 9290 4922 4677 32 62 9895 
7756 1107 3475 6193 6060 8494 913 774 1797 
3345 7815 9373 9295 9118 9658 751 9978 7372 
5328 8921 9883 7695 5075 60 4292 3079 5030 
211 4164 8613 4441 1647 9330 596 8385 8005 
7008 5977 6851 2051 9503 1067 4926 4262 665 
2695 5446 4723 9756 1374 4852 9743 2978 146 
3335 7750 5269 2349 9662 4696 1748 1635 502 
3690 6163 5647 2334 5133 9845 1645 1070 8110 
8578 4368 4832 2748 1441 2710 9902 5542 8946 
3669 4049 7936 3055 6009 4845 4634 1293 2530 
8064 3517 1122 517 8157 5365 2793 9689 241 
3007 8863 5175 8956 9394 4769 3431 8122 8370 
9292 9052 3984 8885 1573 7389 5421 2514 4270 
7655 9232 3599 4214 4673 2294 9719 4844 9949 
4798 2066 1061 9651 4056 9224 5366 275 9575 
6179 9141 5651 9698 2899 8533 2280 4606 6852 
4210 7852 1336 7532 2824 2058 4596 9293 1766 
2949 6344 2948 279 6314 5257 1217 3372 3550 
6022 9548 1865 989 4638 6697 9663 7572 9581 
8182 2225 3552 4965 1580 8569 9954 9944 838 
5885 9047 4624 7002 2677 1601 455 1985 2222 
1377 2614 9609 3096 668 2484 4421 3629 4322 
9009 8645 9529 9178 2366 9062 5930 1221 4706 
7493 1762 4919 1971 3040 5349 8638 7873 5508 
4277 316 4474 2097 2675 1481 7734 1597 5080 
1318 9669 4982 2436 4578 176 624 5714 7411 
3533 1813 3053 712 2931 4907 5490 8736 7511 
7446 7328 9823 3681 5858 2969 1015 3654 359 
8241 2861 7258 4861 6904 4911 1146 2185 6015 
8460 9344 459 5251 5771 1214 8546 6194 5584 
7826 4053 4808 1395 6720 1192 2689 1929 6673 
610 2847 6431 3932 5018 6180 97 41 4933 
4004 9778 2205 5898 4569 9680 4199 7200 1513 
64 1520 6487 9797 4880 6991 4304 5571 2709 
2531 7402 9709 6971 3177 2068 6919 4621 4030 
7642 476 554 6212 487 4229 7883 6058 9159 
5026 1922 6082 8806 9008 9063 4823 527 1918 
371 9938 5841 5778 7384 6520 3994 1277 5970 
5563 4092 7630 4370 5214 4810 8787 4716 5448 
298 8184 3553 9646 7455 6416 5951 7558 8918 
8516 1957 4564 9215 381 9195 7602 5152 3032 
5881 5746 9868 7723 1948 7601 162 6733 9434 
9928 4733 5083 9263 2574 6478 7522 8939 8200 
3113 9644 1982 9619 1613 2467 3649 605 5765 
5541 244 2318 5487 1139 2996 8145 5172 8087 
1945 8025 6933 8550 414 3507 836 9030 7611 
3909 4073 4118 1671 1708 6447 9162 4619 2033 
8280 7939 8021 6747 9285 1206 6691 6494 4325 
8723 2565 1890 3877 2148 5122 3891 8795 6560 
7841 2309 3870 220 3492 6386 5413 6731 8920 
1876 9496 6479 451 625 8281 697 3300 281 
5860 3305 1124 2399 8716 8194 7822 1969 2221 
6228 6149 9343 9702 75 4012 7790 439 7671 
6712 1088 8536 1607 1415 5806 6084 6488 4825 
4082 5992 3703 9459 5351 1360 2389 2548 5500 
5620 7188 1140 4315 6160 2427 8630 1026 9028 
1501 6555 5336 4779 129 5550 6988 5698 5498 
5513 8540 1663 8835 2407 6502 9297 6529 4116 
8601 7825 7065 9226 5150 2358 9906 1882 6787 
9499 9766 7146 1472 6355 1710 8519 5127 3435 
9977 175 7740 3853 8300 9412 3062 1468 9126 
2381 1806 190 8833 2666 2351 9019 1549 1457 
7274 3203 6511 851 661 4652 1981 5154 4684 
7000 5648 9584 6582 1960 2602 8203 8043 4033 
1335 6679 1394 5902 8994 3989 7335 2233 4389 
6122 2864 335 7807 3895 3394 4749 8776 6201 
6834 816 4414 6981 8134 2987 490 8405 5570 
1322 3315 5025 7521 5333 1701 2359 7705 9706 
1158 8335 6948 9110 2459 5454 3437 1255 4171 
9101 9992 8786 8916 9502 4276 2380 3558 5149 
561 4625 2322 2526 9004 593 8312 3197 4420 
193 3503 4792 5595 1030 3519 1087 5744 188 
5022 7997 6966 7227 5677 7192 6666 8583 8829 
3625 7204 5340 9471 5554 952 4967 1881 8896 
6440 9859 184 7385 3568 1178 8268 7190 7605 
5874 9796 4916 3941 3948 3633 1752 2272 6809 
2356 4453 7035 9997 905 2927 2463 7213 392 
5509 7186 4700 3481 283 8039 2110 8381 725 
3257 5322 951 5759 5981 5001 8276 9852 3204 
8871 6257 9948 7973 5767 583 6277 3977 2323 
2719 3199 5153 5514 3549 7401 1021 3954 4250 
3693 9129 8753 6773 9036 8252 2237 5706 1680 
5819 714 257 5033 4418 6330 5532 2171 79 
1933 6927 5343 3314 5597 6079 6072 635 1954 
2698 7244 6262 8050 3526 6235 4866 1537 5470 
9256 1531 7634 6032 7067 3603 3935 3196 1241 
1391 3393 200 5166 2630 287 1819 4475 1113 
2388 228 4184 6781 3782 8056 6822 4467 2682 
7731 877 139 6888 6073 6199 1329 2112 3433 
1069 5101 5910 7060 2917 849 7676 5407 6527 
3304 7866 7764 9629 4228 3838 3312 2837 9937 
7986 7268 6041 5113 2168 9987 7710 1430 2922 
3898 5847 2832 9136 8346 363 690 341 1857 
230 6083 7620 3944 2889 9788 6227 8293 8604 
4957 9246 979 2763 5287 1715 1604 1741 361 
4286 1678 2383 7666 8727 3220 2768 6264 1944 
5943 2124 9504 7545 4653 2993 3580 759 8144 
9830 6047 4029 5650 6366 957 5051 4692 4802 
387 3914 2751 1589 5494 5594 2813 6914 9941 
3117 4900 6837 2696 2460 96 5103 504 9968 
6216 3313 6630 7931 760 5353 5116 9758 4396 
1532 8431 4423 6916 5727 5055 7743 4709 483 
9535 427 1091 691 3802 8721 304 8577 825 
2717 2720 5816 9323 6598 9621 5968 7780 8340 
6178 9240 2095 9602 417 3915 2127 7106 5805 
1540 7694 1485 6869 2699 4295 3515 349 6534 
7711 2572 7485 4595 1983 9400 5236 3225 386 
7093 424 2009 1181 3452 4913 5449 2934 9627 
1134 8838 1986 8240 2387 5935 6957 6394 3612 
4740 1569 1370 764 4075 3274 8696 3823 4516 
7797 718 3213 4639 4588 4052 4231 108 3702 
1323 720 1250 2207 8029 8095 6145 5919 2378 
2405 2455 6411 4763 6203 6993 8733 4074 1493 
6460 327 3170 8978 8606 9245 7169 654 8487 
8291 8598 7177 6038 4785 2229 5105 8991 5705 
9572 7151 9578 1466 2800 5753 6437 8974 7394 
321 991 5608 4471 8088 9426 778 959 4894 
2027 2101 9795 3795 2193 1632 5674 3554 7082 
5192 6285 1630 7824 2136 1994 1102 1689 1175 
8971 508 1478 2556 9455 2123 4005 2446 6409 
4994 9171 7094 3022 6818 9303 1522 1910 822 
7557 6812 9597 565 700 1707 1118 7021 1734 
8123 6120 59 3375 2732 9693 1008 473 609 
123 3868 2212 579 6289 2141 1049 17 3478 
7510 8537 2907 3376 7736 4764 7552 5396 3217 
2938 5321 4960 5607 3710 3341 6921 9736 3939 
2003 8821 2170 7745 8047 5861 5795 2216 3132 
3792 646 6243 4856 655 5855 4386 4617 7153 
7586 8846 437 1306 7381 478 2461 1095 4748 
157 5389 2081 35 5842 6600 9765 5168 7202 
105 4127 39 7460 4786 1593 2762 9961 7073 
3886 8965 9458 3609 650 2450 3152 7987 8388 
963 3872 9886 8612 3365 594 8878 9673 6097 
1282 1188 9376 6206 8099 9984 4455 4817 7596 
7056 4589 1725 5873 2966 5310 3379 1275 1968 
747 2910 4615 1840 9135 7237 5879 4822 6238 
7877 2567 9871 189 7828 9903 7326 9086 7660 
9208 4713 4771 7811 7483 6240 7831 4060 7715 
9542 1126 4772 3290 4847 4735 4269 9199 2798 
1252 6012 1560 7897 4439 3190 7796 6782 4956 
31 5516 3016 8845 1497 4242 9214 8097 1423 
2741 1822 4301 7771 8773 3704 1793 2109 2302 
9370 9545 2075 6317 164 1924 179 2998 9176 
5672 3592 8572 6242 6021 7512 345 2721 5057 
6592 5949 5913 9544 1483 309 1999 2705 1455 
4465 997 4111 7230 7253 6590 1934 5189 9671 
841 5953 846 8981 9507 117 2357 8074 9726 
7832 8310 6726 7181 9014 1251 4271 6760 8297 
6835 7812 2247 1843 113 4207 8410 9705 484 
8512 2590 9423 1525 2673 224 2220 5539 5984 
4077 9500 5274 9923 5741 4524 9242 9198 5707 
6540 2941 4302 5958 5279 4788 3912 889 3462 
4068 5777 2795 6434 1179 2678 970 6384 4732 
116 7310 9851 9485 6405 6280 8808 9703 3600 
8395 3486 7833 856 27 9550 9694 5450 3904 
9450 5246 3971 1051 6681 8913 3188 5661 5739 
540 101 9701 9363 9032 4851 445 1432 475 
1354 4078 4720 3133 6539 4237 6256 4206 9048 
3699 5303 5769 2288 1838 5683 3619 1063 4399 
1369 9034 6273 4167 7434 7246 1650 1086 2869 
2575 1709 4051 7698 6486 4708 1144 1296 9332 
7376 7669 6980 6124 7640 1327 8131 1791 1578 
4009 1205 4843 3329 9488 4340 5264 5557 7120 
3555 2023 1341 798 87 4364 8109 9289 3131 
3395 8211 4576 3686 7408 7623 2262 3263 5726 
260 6096 771 5223 3005 192 9281 5147 5671 
9452 678 3450 9229 2096 3060 2827 3844 758 
9639 2600 3573 5830 4515 7159 8947 6517 1914 
3767 3536 2203 6531 3256 1998 7111 3093 2510 
555 848 3439 9538 4433 1094 1344 1364 9316 
9947 3694 1162 8152 2691 3281 24 4347 7799 
3171 7507 4656 5979 9128 9774 8852 9966 5560 
7699 6984 6628 8253 8171 3066 3473 6501 8873 
1279 6833 7716 4650 1073 3211 3866 8621 467 
8427 2838 1829 946 1164 7980 5482 9473 6046 
2604 4602 8163 4372 6992 6889 3070 7599 338 
6399 8530 9913 6332 6268 5845 7062 6725 9551 
9816 5658 5466 8543 8034 6683 8151 7135 2740 
1247 8451 344 1195 3530 6323 4072 742 1886 
2169 9815 3235 8167 6514 454 8980 7272 1820 
8619 4 6860 973 2273 4136 365 3675 3978 
1019 1257 2958 933 9440 4135 9085 9520 9782 
8989 7579 677 3074 3817 6868 631 9105 8006 
5889 2959 4855 8438 5750 2209 4076 896 494 
7940 3123 2622 2641 7157 6138 9478 2010 8772 
3262 1404 2157 7678 4034 9017 4975 9449 2192 
7958 7282 4272 6791 52 5178 6303 3255 8967 
1035 9042 2749 7991 4781 3997 8897 9209 3232 
3781 9623 9069 1844 2642 6732 9974 9404 4953 
2571 9757 3447 3766 3366 8492 643 7371 5230 
351 7693 8471 8349 3227 8225 8351 3420 9469 
8561 1314 137 1542 4312 1700 5429 7206 5458 
6471 2542 8851 6660 6505 4826 732 5400 4445 
3843 3297 9348 2640 7637 6907 5546 8098 6727 
106 6785 4816 5307 4296 2782 7808 830 8518 
4064 886 5136 6144 3679 556 532 8219 438 
7675 469 915 2039 3613 5348 6775 1137 1353 
6951 1258 3091 4892 4503 8057 7179 4232 9692 
1555 7638 6338 6370 5633 8637 5352 8804 721 
9007 8112 1546 8964 5730 1187 2257 5822 9315 
7207 8158 7063 333 8406 5907 7031 9580 1595 
7930 2624 2310 8183 8323 1646 5474 238 2367 
8719 390 739 8683 9910 9088 68 9170 3918 
2059 9840 9652 5779 6260 5927 8529 835 4095 
1017 5010 21 9022 8250 3119 528 2370 7417 
1230 7248 5801 829 9467 4190 598 5453 5216 
3929 693 1413 4087 6551 1728 3510 4013 1012 
8382 8950 4010 9846 9656 4645 6963 3015 3930 
669 7040 5003 9716 2892 3800 4934 6573 2854 
9389 828 5099 6650 3514 134 9251 2778 4562 
9384 9920 7704 8866 4964 2596 1426 6107 5296 
5602 6031 8424 4015 3508 7325 9114 6095 2332 
2344 4026 9915 3309 1373 7324 8345 2752 648 
4775 2340 4283 1509 7105 6819 4691 6239 236 
7528 1196 6024 2724 5695 1869 9239 291 5665 
8520 8238 2178 442 6197 987 3347 7254 3323 
5346 1333 3179 5774 4450 6719 9359 925 1695 
880 4383 7415 9614 1875 4739 1249 7475 5416 
9637 3292 9546 423 4729 1898 3661 3078 9894 
9023 3658 6533 6379 8216 4143 7449 4387 382 
6567 91 3627 6911 6446 1716 8464 3885 3356 
74 8026 4628 360 1014 2661 1242 5142 3749 
2139 95 6369 1266 3098 5840 7456 8224 5156 
765 8552 1953 7032 2186 7309 9203 5424 6701 
4288 7547 8104 4690 9282 1764 9371 9006 9321 
8082 7879 5385 6023 726 7337 5871 5757 978 
8409 9567 9789 9579 3151 5920 8138 9557 4221 
6441 2960 6627 7806 534 2258 8161 9873 8765 
4014 3660 7267 6899 7359 6296 7285 8290 2113 
3905 216 9934 9862 9243 5480 6871 7441 7277 
628 8421 8783 1519 237 8605 5479 3467 4590 
1702 815 8449 6276 3982 2652 2790 5815 2902 
8485 4224 8631 907 971 4783 3421 3761 7096 
7861 369 2953 652 9828 5408 7885 388 8229 
197 2035 5297 3082 3677 398 1506 2433 3864 
1974 9187 9405 6438 6778 4343 9131 5575 8230 
873 3127 5904 3540 7830 9460 5654 1512 9345 
1988 7375 5506 2994 9065 7814 4643 1732 7970 
7649 2656 3582 1852 6035 2267 9403 2390 180 
8570 7104 284 2020 5870 2241 8756 818 7431 
4431 8234 8414 7845 1571 5965 8881 3238 2099 
8332 5115 3441 9410 7907 6576 3012 7850 5069 
4582 1681 9278 1161 4084 8665 1754 2735 7068 
2423 4021 9838 7182 7544 7647 626 4354 2489 
377 1783 2821 2826 7927 7960 2523 5426 2592 
6866 4336 4397 6039 4819 7020 4112 8754 2371 
8343 5891 6641 5555 5327 8828 1714 1919 9387 
9116 3842 6970 2537 2444 592 168 239 4133 
1515 1729 9908 3754 4995 5917 9620 3480 4023 
9248 5158 2485 2576 3442 6368 3953 1245 3741 
6497 1559 6702 2961 8027 5976 6161 4988 6190 
3100 261 942 9000 8181 6166 5130 6052 6210 
7737 513 2152 6078 5434 6430 1759 4664 9875 
3135 5989 2982 7573 7855 77 6759 5402 7264 
9055 7377 9659 9083 7886 5423 6553 3479 1117 
5543 6468 2623 4938 6762 6829 2452 4778 5503 
6173 1665 6450 9853 4449 5931 6391 827 9011 
8093 7709 11 1616 5693 2473 7107 7360 4189 
303 5800 3286 2048 5334 8725 4348 5784 2670 
2897 320 1949 9115 2940 1959 7526 5908 5249 
7119 3013 529 2521 3574 1456 7609 5435 3092 
7071 3464 2900 8602 8682 542 878 5686 8384 
8187 7222 8468 9933 5934 5857 3006 3031 8684 
9270 1809 5972 8690 8781 6356 3985 6331 7273 
3306 8718 4991 3294 2928 7990 5468 6299 8894 
6792 1990 8855 904 4279 9817 8943 8752 866 
7628 5549 9382 7588 7559 2219 3639 9335 575 
7541 1796 4335 5370 9157 6816 748 8793 3320 
8817 3878 1474 7652 2956 9980 271 9864 4891 
9833 588 2761 1776 1269 1825 2946 3983 9836 
6805 8357 3865 3460 5207 2802 606 5971 4457 
4986 4481 6654 2121 2088 36 6908 9414 3303 
3651 3705 8186 2266 8674 1411 9164 3017 5676 
5997 9361 4317 5866 8735 5631 3103 1490 1602 
3896 6279 4365 203 8899 1930 1147 4717 9264 
3077 8352 4972 5309 9319 5528 8617 5475 7386 
4940 3728 3680 6605 8368 6645 2878 7661 3224 
7654 3134 6836 4943 8000 6876 927 2377 5821 
19 6783 1365 2002 126 212 2108 2577 6577 
3655 2348 9856 3809 9415 4815 330 7856 3535 
5195 7219 7894 6793 85 3894 3727 2202 4859 
3906 115 9148 4742 701 1427 3968 9842 4824 
2658 4219 688 9687 7171 3011 8587 380 4357 
7252 9397 7164 3917 7994 4203 3422 8286 6398 
3146 6934 4807 8 2733 3511 250 5849 8819 
8642 2799 5417 7133 3149 639 2756 3370 3178 
3620 3635 5673 2213 9225 685 7072 8397 5129 
4517 9046 5497 6748 3666 4273 8869 5359 9466 
5011 7593 2898 5276 7156 3602 1697 5286 1654 
1839 6319 4912 4213 8662 6794 4459 5139 9638 
6757 1611 6999 9261 1076 4600 4091 4176 3750 
9976 5072 2347 1009 2083 2156 4376 2603 6522 
9696 1777 722 7045 3757 5193 4887 704 3892 
2049 8671 1757 9559 2680 3684 6253 136 7571 
1588 1110 7029 7445 9561 4613 5443 3009 6802 
9179 9825 4436 8661 6463 7084 5420 2449 9759 
1615 5725 6587 2923 4604 9911 2251 6442 2722 
4945 1558 7784 2877 2866 924 622 9255 9276 
4326 5794 7398 8709 7479 8189 5134 3765 385 
8075 5087 8347 7005 6362 7556 8329 8149 8040 
158 1850 2008 2517 2426 8713 920 6928 8342 
8799 6088 6616 8810 8486 5243 1536 2812 7332 
2105 7426 5638 1550 3136 5485 4513 5272 8522 
4546 5060 9633 7508 823 8685 4903 673 6674 
9653 634 8277 7214 5627 9532 6346 4981 2828 
5662 3354 9005 1029 4024 9943 9844 1787 1543 
1878 7210 2064 3963 3692 2270 457 7044 9776 
1387 290 2206 2130 3862 8592 3787 2529 9483 
9002 482 8932 5850 9056 1263 4534 4573 25 
4917 4196 9791 3908 9645 8106 2478 6985 289 
5427 4754 5883 6141 8514 8844 8825 6626 2706 
2538 8433 6011 4011 1943 8437 2841 2304 5291 
9378 7626 6142 7719 1758 6618 2214 4535 9510 
8498 4951 1769 9012 20 3 7921 7189 9217 
9064 7259 595 868 6265 3848 2817 801 1384 
1816 6634 6112 7050 9732 4169 840 7703 6490 
1367 5428 1811 2363 9951 3529 8004 4088 2188 
1763 1283 112 1039 689 8324 7440 800 9697 
8311 4622 2951 7092 1359 4249 8824 1570 8364 
4404 3887 430 4165 4110 8147 1853 8532 1112 
9218 3771 6604 1866 8877 9288 7500 7361 8771 
2055 2 8960 8748 5043 7576 8812 4538 4935 
860 5966 5537 3039 7379 5036 8257 5034 6595 
9071 3253 7600 6784 8128 7447 541 8762 5791 
4141 9832 8779 3176 3052 4119 604 7052 3180 
2911 4736 2942 898 3804 8521 6062 9539 9582 
6886 7546 8032 1448 8972 9265 2797 7999 7239 
9479 3735 477 2142 9827 8442 9907 3901 8958 
1698 1713 1660 641 6470 4921 548 676 9583 
5379 9595 8429 9654 8711 9234 9967 6068 5519 
2333 9834 3219 7217 6823 1917 4505 5350 3919 
9958 8579 2555 7996 3049 9786 9590 6116 574 
9882 8298 6786 6756 8701 7318 5196 4744 2054 
6689 493 511 9137 2176 3688 4714 2700 7450 
5046 4928 7406 632 2004 7255 3186 1799 4990 
2328 8444 1861 8178 2398 6664 222 3038 7505 
5283 7055 4107 8428 9604 5289 1657 5963 9804 
6749 2287 6718 2718 7587 6146 5829 8667 9398 
9995 6395 2429 6449 2882 8011 1116 1567 9098 
8564 9511 1907 1270 4478 9576 8207 9326 83 
539 8636 6424 6680 8616 9206 9857 9383 9574 
7305 6121 5096 7051 5610 5212 2158 6873 7892 
90 9480 5471 3719 356 3830 5186 7575 6101 
9564 7331 5613 3338 9367 2368 415 3348 4539 
5922 9444 4209 9454 5397 9565 1379 1200 7470 
9328 9681 9965 444 272 7702 6903 8063 6602 
7682 9837 9142 2365 4261 2875 8673 2311 6699 
269 453 630 3743 1499 7320 8687 6584 9606 
3469 5162 6686 3351 7769 8016 6493 666 5464 
6010 4298 225 559 2980 9835 2681 7835 9858 
9748 2215 4846 8576 8566 7979 395 9311 8083 
1417 8292 2527 1712 7228 1040 5848 5590 2269 
3998 3827 3001 7667 2879 9800 9156 4730 7717 
9922 481 4594 5439 3942 538 4668 9881 8758 
9364 288 9626 5559 5140 7770 6013 7495 6318 
3561 389 3762 9346 6541 1011 9553 9700 3732 
8952 3542 9945 9921 3687 7498 7302 8632 9831 
1092 3922 9952 7910 1897 6077 5969 1319 8320 
4356 611 5065 6385 4992 8452 8162 746 7158 
6593 2122 8236 9144 1782 738 3610 9898 480 
9981 5157 4703 6578 6955 2822 4518 3336 9707 
9960 1946 198 8987 7891 6287 8287 9610 2195 
8535 1231 2859 6140 6283 3528 6554 6474 9914 
6655 2005 615 8354 410 5299 5409 5021 9537 
6034 4583 516 9927 30 6975 3637 1818 1332 
9472 8996 5520 7291 7388 2442 9439 301 9751 
8445 2981 5928 2515 6552 501 8084 9220 8508 
1587 6766 4352 8002 5406 3820 8217 1180 9121 
9527 4838 6549 8745 8876 961 6278 9571 6020 
3768 9522 8744 9998 3210 4914 921 5052 5496 
7086 9731 1138 3588 582 7534 3825 5577 7439 
7776 426 4297 310 350 1991 8784 6610 3966 
750 3081 7865 7569 3165 1004 4715 4770 1368 
6847 578 4145 788 1608 3384 65 9082 8931 
1870 7462 8348 8139 3222 9747 4054 8377 716 
2256 733 7941 9647 6162 4527 4148 8228 3415 
7896 6353 491 6110 9729 6392 3346 3260 7058 
6827 9104 8936 8243 6828 6104 9528 9521 7691 
2447 9508 9100 3463 9955 992 1410 8764 7566 
6753 6739 3940 6974 9107 1454 5623 3836 7707 
2912 2557 1655 9238 5760 8615 5903 4542 186 
3731 6048 4123 1867 7241 3043 2482 3160 1464 
8092 8797 2672 9401 709 8254 2441 2638 9150 
875 4592 2246 5688 623 5521 9147 3021 4521 
425 8668 723 4854 6943 9320 1240 8857 2520 
4789 5255 7947 5569 6093 9515 3943 5086 8872 
7627 5548 6403 107 999 5955 8080 7444 3237 
5640 2474 9517 9547 8867 9207 9272 4567 8400 
707 9202 6091 5666 5678 7747 8788 2077 5300 
7283 1517 9498 4447 9799 1585 1159 9780 5123 
7170 784 9733 9725 2253 5367 7438 7149 9805 
3564 6969 372 7160 9165 5814 6893 8678 7152 
8372 2022 2264 5298 6738 9497 464 1226 6207 
8830 5364 1174 9724 210 2569 5579 9677 5924 
9691 647 862 471 1612 8506 5037 6477 5618 
296 1165 6172 5967 7028 7346 5102 9850 7292 
7827 9762 9607 8215 5091 4113 9253 1636 3080 
5440 4310 233 5081 9711 4814 8524 6947 7138 
9683 9764 2977 4378 9505 6956 8792 6129 7967 
3776 6003 9124 543 6744 9465 7636 2092 1191 
9524 6668 9591 6381 8811 5181 2386 4353 5933 
7578 397 4115 7795 842 3432 1527 9628 7950 
6390 9690 9972 7584 2820 8650 6675 4039 3544 
6402 8072 9233 1351 3502 5483 9084 3808 6465 
4329 4285 1693 3247 3583 8389 7974 7712 6721 
672 3291 4591 6728 8504 8697 9957 8517 1792 
1148 7477 8359 5183 5262 78 9534 7568 1978 
8541 9562 1128 9814 7391 9035 7336 6181 6151 
375 6026 4066 7632 6637 9848 4371 4797 6320 
5591 931 6649 8493 4398 6807 1631 767 7969 
7420 4654 4529 7022 3064 6694 9932 5659 6906 
7535 1899 5374 8879 8625 9385 1836 5906 2886 